 Entering Gaussian System, Link 0=g09
 Initial command:
 /mnt/opt/groups/app-gaussian//g09/l1.exe "/scratch/4799279.torquesrv1.cis.gov.pl/Gau-48188.inp" -scrdir="/scratch/4799279.torquesrv1.cis.gov.pl/"
 Entering Link 1 = /mnt/opt/groups/app-gaussian//g09/l1.exe PID=     48191.
  
 Copyright (c) 1988,1990,1992,1993,1995,1998,2003,2009,2013,
            Gaussian, Inc.  All Rights Reserved.
  
 This is part of the Gaussian(R) 09 program.  It is based on
 the Gaussian(R) 03 system (copyright 2003, Gaussian, Inc.),
 the Gaussian(R) 98 system (copyright 1998, Gaussian, Inc.),
 the Gaussian(R) 94 system (copyright 1995, Gaussian, Inc.),
 the Gaussian 92(TM) system (copyright 1992, Gaussian, Inc.),
 the Gaussian 90(TM) system (copyright 1990, Gaussian, Inc.),
 the Gaussian 88(TM) system (copyright 1988, Gaussian, Inc.),
 the Gaussian 86(TM) system (copyright 1986, Carnegie Mellon
 University), and the Gaussian 82(TM) system (copyright 1983,
 Carnegie Mellon University). Gaussian is a federally registered
 trademark of Gaussian, Inc.
  
 This software contains proprietary and confidential information,
 including trade secrets, belonging to Gaussian, Inc.
  
 This software is provided under written license and may be
 used, copied, transmitted, or stored only in accord with that
 written license.
  
 The following legend is applicable only to US Government
 contracts under FAR:
  
                    RESTRICTED RIGHTS LEGEND
  
 Use, reproduction and disclosure by the US Government is
 subject to restrictions as set forth in subparagraphs (a)
 and (c) of the Commercial Computer Software - Restricted
 Rights clause in FAR 52.227-19.
  
 Gaussian, Inc.
 340 Quinnipiac St., Bldg. 40, Wallingford CT 06492
  
  
 ---------------------------------------------------------------
 Warning -- This program may not be used in any manner that
 competes with the business of Gaussian, Inc. or will provide
 assistance to any competitor of Gaussian, Inc.  The licensee
 of this program is prohibited from giving any competitor of
 Gaussian, Inc. access to this program.  By using this program,
 the user acknowledges that Gaussian, Inc. is engaged in the
 business of creating and licensing software in the field of
 computational chemistry and represents and warrants to the
 licensee that it is not a competitor of Gaussian, Inc. and that
 it will not use this program in any manner prohibited above.
 ---------------------------------------------------------------
  

 Cite this work as:
 Gaussian 09, Revision D.01,
 M. J. Frisch, G. W. Trucks, H. B. Schlegel, G. E. Scuseria, 
 M. A. Robb, J. R. Cheeseman, G. Scalmani, V. Barone, B. Mennucci, 
 G. A. Petersson, H. Nakatsuji, M. Caricato, X. Li, H. P. Hratchian, 
 A. F. Izmaylov, J. Bloino, G. Zheng, J. L. Sonnenberg, M. Hada, 
 M. Ehara, K. Toyota, R. Fukuda, J. Hasegawa, M. Ishida, T. Nakajima, 
 Y. Honda, O. Kitao, H. Nakai, T. Vreven, J. A. Montgomery, Jr., 
 J. E. Peralta, F. Ogliaro, M. Bearpark, J. J. Heyd, E. Brothers, 
 K. N. Kudin, V. N. Staroverov, T. Keith, R. Kobayashi, J. Normand, 
 K. Raghavachari, A. Rendell, J. C. Burant, S. S. Iyengar, J. Tomasi, 
 M. Cossi, N. Rega, J. M. Millam, M. Klene, J. E. Knox, J. B. Cross, 
 V. Bakken, C. Adamo, J. Jaramillo, R. Gomperts, R. E. Stratmann, 
 O. Yazyev, A. J. Austin, R. Cammi, C. Pomelli, J. W. Ochterski, 
 R. L. Martin, K. Morokuma, V. G. Zakrzewski, G. A. Voth, 
 P. Salvador, J. J. Dannenberg, S. Dapprich, A. D. Daniels, 
 O. Farkas, J. B. Foresman, J. V. Ortiz, J. Cioslowski, 
 and D. J. Fox, Gaussian, Inc., Wallingford CT, 2013.
 
 ******************************************
 Gaussian 09:  ES64L-G09RevD.01 24-Apr-2013
                21-Mar-2020 
 ******************************************
 %nproc=30
 Will use up to   30 processors via shared memory.
 %mem=30000MB
 ----------------------------------------------------------------------
 # opt freq b3lyp/6-31g(d) empiricaldispersion=gd3 scf=(fermi,novaracc,
 noincfoc,maxcycle=1000)
 ----------------------------------------------------------------------
 1/14=-1,18=20,19=15,26=3,38=1/1,3;
 2/9=110,12=2,17=6,18=5,40=1/2;
 3/5=1,6=6,7=1,11=2,16=1,25=1,30=1,71=1,74=-5,124=31/1,2,3;
 4//1;
 5/5=100002,7=1000,22=13,38=1/2;
 6/7=2,8=2,9=2,10=2,28=1/1;
 7//1,2,3,16;
 1/14=-1,18=20,19=15,26=3/3(2);
 2/9=110/2;
 99//99;
 2/9=110/2;
 3/5=1,6=6,7=1,11=2,16=1,25=1,30=1,71=1,74=-5,124=31/1,2,3;
 4/5=5,16=3,69=1/1;
 5/5=100002,7=1000,22=13,38=1/2;
 7//1,2,3,16;
 1/14=-1,18=20,19=15,26=3/3(-5);
 2/9=110/2;
 6/7=2,8=2,9=2,10=2,19=2,28=1/1;
 99/9=1/99;
 -------------------
 Title Card Required
 -------------------
 Symbolic Z-matrix:
 Charge =  0 Multiplicity = 1
 C(PDBName=C,ResName=UNK,ResNum=1) -2.78061   1.21705  -1.94336 
 C(PDBName=C,ResName=UNK,ResNum=1) -1.95001   2.31577  -1.90775 
 C(PDBName=C,ResName=UNK,ResNum=1) -0.6351    2.3272   -2.64743 
 C(PDBName=C,ResName=UNK,ResNum=1) -0.22353   1.19843  -3.26732 
 C(PDBName=C,ResName=UNK,ResNum=1) -2.78061  -1.21705  -1.94336 
 C(PDBName=C,ResName=UNK,ResNum=1) -3.44078  -0.7394   -0.71161 
 C(PDBName=C,ResName=UNK,ResNum=1) -3.44078   0.7394   -0.71161 
 C(PDBName=C,ResName=UNK,ResNum=1) -3.24838   1.43017   0.49625 
 C(PDBName=C,ResName=UNK,ResNum=1) -1.74771   3.05675  -0.64949 
 C(PDBName=C,ResName=UNK,ResNum=1)  0.34706   3.07101  -1.83682 
 C(PDBName=C,ResName=UNK,ResNum=1)  1.68945   2.63458  -1.77888 
 C(PDBName=C,ResName=UNK,ResNum=1)  2.12116   1.44055  -2.54508 
 C(PDBName=C,ResName=UNK,ResNum=1)  1.18595   0.75073  -3.33289 
 C(PDBName=C,ResName=UNK,ResNum=1)  1.18595  -0.75073  -3.33289 
 C(PDBName=C,ResName=UNK,ResNum=1) -0.22353  -1.19843  -3.26732 
 C(PDBName=C,ResName=UNK,ResNum=1) -0.6351   -2.3272   -2.64743 
 C(PDBName=C,ResName=UNK,ResNum=1) -1.95001  -2.31577  -1.90775 
 C(PDBName=C,ResName=UNK,ResNum=1) -3.24838  -1.43017   0.49625 
 C(PDBName=C,ResName=UNK,ResNum=1) -2.38408  -2.62506   0.52656 
 C(PDBName=C,ResName=UNK,ResNum=1) -1.74771  -3.05675  -0.64949 
 C(PDBName=C,ResName=UNK,ResNum=1) -0.33333  -3.48431  -0.59298 
 C(PDBName=C,ResName=UNK,ResNum=1)  0.34706  -3.07101  -1.83682 
 C(PDBName=C,ResName=UNK,ResNum=1)  1.68945  -2.63458  -1.77888 
 C(PDBName=C,ResName=UNK,ResNum=1)  2.12116  -1.44055  -2.54508 
 C(PDBName=C,ResName=UNK,ResNum=1)  3.06562  -0.67727  -1.70393 
 C(PDBName=C,ResName=UNK,ResNum=1)  3.06562   0.67727  -1.70393 
 C(PDBName=C,ResName=UNK,ResNum=1) -0.33333   3.48431  -0.59298 
 C(PDBName=C,ResName=UNK,ResNum=1)  2.73322   1.1948    1.94904 
 C(PDBName=C,ResName=UNK,ResNum=1)  1.9344    2.28504   1.91133 
 C(PDBName=C,ResName=UNK,ResNum=1)  0.65037   2.28511   2.63906 
 C(PDBName=C,ResName=UNK,ResNum=1)  0.27221   1.195     3.34396 
 C(PDBName=C,ResName=UNK,ResNum=1)  1.14015   0.        3.37774 
 C(PDBName=C,ResName=UNK,ResNum=1)  2.73322  -1.1948    1.94904 
 C(PDBName=C,ResName=UNK,ResNum=1)  3.41466  -0.73796   0.72154 
 C(PDBName=C,ResName=UNK,ResNum=1)  3.41466   0.73796   0.72154 
 C(PDBName=C,ResName=UNK,ResNum=1)  3.24487   1.41307  -0.4369 
 C(PDBName=C,ResName=UNK,ResNum=1)  2.37954   2.60777  -0.47689 
 C(PDBName=C,ResName=UNK,ResNum=1)  1.74093   3.01592   0.64227 
 C(PDBName=C,ResName=UNK,ResNum=1) -0.33868   3.01565   1.8204 
 C(PDBName=C,ResName=UNK,ResNum=1) -1.62634   2.60596   1.79109 
 C(PDBName=C,ResName=UNK,ResNum=1) -2.0367    1.41273   2.55516 
 C(PDBName=C,ResName=UNK,ResNum=1) -1.13102   0.73819   3.2978 
 C(PDBName=C,ResName=UNK,ResNum=1) -1.13102  -0.73819   3.2978 
 C(PDBName=C,ResName=UNK,ResNum=1)  0.27221  -1.195     3.34396 
 C(PDBName=C,ResName=UNK,ResNum=1)  0.65037  -2.28511   2.63906 
 C(PDBName=C,ResName=UNK,ResNum=1)  1.9344   -2.28504   1.91133 
 C(PDBName=C,ResName=UNK,ResNum=1)  3.24487  -1.41307  -0.4369 
 C(PDBName=C,ResName=UNK,ResNum=1)  2.37954  -2.60777  -0.47689 
 C(PDBName=C,ResName=UNK,ResNum=1)  1.74093  -3.01592   0.64227 
 C(PDBName=C,ResName=UNK,ResNum=1)  0.33367  -3.46537   0.58312 
 C(PDBName=C,ResName=UNK,ResNum=1) -0.33868  -3.01565   1.8204 
 C(PDBName=C,ResName=UNK,ResNum=1) -1.62634  -2.60596   1.79109 
 C(PDBName=C,ResName=UNK,ResNum=1) -2.0367   -1.41273   2.55516 
 C(PDBName=C,ResName=UNK,ResNum=1) -3.02532  -0.67585   1.74468 
 C(PDBName=C,ResName=UNK,ResNum=1) -3.02532   0.67585   1.74468 
 C(PDBName=C,ResName=UNK,ResNum=1)  0.33367   3.46537   0.58312 
 C(PDBName=C,ResName=UNK,ResNum=1) -2.38408   2.62506   0.52656 
 C(PDBName=C,ResName=UNK,ResNum=1)  2.31627   0.        2.71103 
 C                    -0.89764   0.       -2.78731 
 H                    -0.61431   0.       -1.68567 
 C                    -2.40218   0.       -2.77207 
 H                    -2.86351   0.       -3.78217 
 
 Center=     -0.04674495      0.00000000     -0.07349245
 Residue   0                        charge    0.00000000 layers R        AvRTP=      3.14880151    180.00000000    148.44834565
 Residue   1 PDB Number     1_0 UNK charge    0.00000000 layers R        AvRTP=      0.21715873      0.00000000     31.55165435
 Residue   2                        charge    0.00000000 layers R        AvRTP=      0.00000000      0.00000000      0.00000000

 GradGradGradGradGradGradGradGradGradGradGradGradGradGradGradGradGradGrad
 Berny optimization.
 Initialization pass.
                           ----------------------------
                           !    Initial Parameters    !
                           ! (Angstroms and Degrees)  !
 --------------------------                            --------------------------
 ! Name  Definition              Value          Derivative Info.                !
 --------------------------------------------------------------------------------
 ! R1    R(1,2)                  1.3778         estimate D2E/DX2                !
 ! R2    R(1,7)                  1.4769         estimate D2E/DX2                !
 ! R3    R(1,61)                 1.5203         estimate D2E/DX2                !
 ! R4    R(2,3)                  1.5087         estimate D2E/DX2                !
 ! R5    R(2,9)                  1.4742         estimate D2E/DX2                !
 ! R6    R(3,4)                  1.352          estimate D2E/DX2                !
 ! R7    R(3,10)                 1.4748         estimate D2E/DX2                !
 ! R8    R(4,13)                 1.4803         estimate D2E/DX2                !
 ! R9    R(4,59)                 1.4564         estimate D2E/DX2                !
 ! R10   R(5,6)                  1.4769         estimate D2E/DX2                !
 ! R11   R(5,17)                 1.3778         estimate D2E/DX2                !
 ! R12   R(5,61)                 1.5203         estimate D2E/DX2                !
 ! R13   R(6,7)                  1.4788         estimate D2E/DX2                !
 ! R14   R(6,18)                 1.4047         estimate D2E/DX2                !
 ! R15   R(7,8)                  1.4047         estimate D2E/DX2                !
 ! R16   R(8,55)                 1.4756         estimate D2E/DX2                !
 ! R17   R(8,57)                 1.475          estimate D2E/DX2                !
 ! R18   R(9,27)                 1.4787         estimate D2E/DX2                !
 ! R19   R(9,57)                 1.4051         estimate D2E/DX2                !
 ! R20   R(10,11)                1.4127         estimate D2E/DX2                !
 ! R21   R(10,27)                1.4768         estimate D2E/DX2                !
 ! R22   R(11,12)                1.483          estimate D2E/DX2                !
 ! R23   R(11,37)                1.4738         estimate D2E/DX2                !
 ! R24   R(12,13)                1.404          estimate D2E/DX2                !
 ! R25   R(12,26)                1.4772         estimate D2E/DX2                !
 ! R26   R(13,14)                1.5015         estimate D2E/DX2                !
 ! R27   R(14,15)                1.4803         estimate D2E/DX2                !
 ! R28   R(14,24)                1.404          estimate D2E/DX2                !
 ! R29   R(15,16)                1.352          estimate D2E/DX2                !
 ! R30   R(15,59)                1.4564         estimate D2E/DX2                !
 ! R31   R(16,17)                1.5087         estimate D2E/DX2                !
 ! R32   R(16,22)                1.4748         estimate D2E/DX2                !
 ! R33   R(17,20)                1.4742         estimate D2E/DX2                !
 ! R34   R(18,19)                1.475          estimate D2E/DX2                !
 ! R35   R(18,54)                1.4756         estimate D2E/DX2                !
 ! R36   R(19,20)                1.4051         estimate D2E/DX2                !
 ! R37   R(19,52)                1.4743         estimate D2E/DX2                !
 ! R38   R(20,21)                1.4787         estimate D2E/DX2                !
 ! R39   R(21,22)                1.4768         estimate D2E/DX2                !
 ! R40   R(21,50)                1.3522         estimate D2E/DX2                !
 ! R41   R(22,23)                1.4127         estimate D2E/DX2                !
 ! R42   R(23,24)                1.483          estimate D2E/DX2                !
 ! R43   R(23,48)                1.4738         estimate D2E/DX2                !
 ! R44   R(24,25)                1.4772         estimate D2E/DX2                !
 ! R45   R(25,26)                1.3545         estimate D2E/DX2                !
 ! R46   R(25,47)                1.4761         estimate D2E/DX2                !
 ! R47   R(26,36)                1.4761         estimate D2E/DX2                !
 ! R48   R(27,56)                1.3522         estimate D2E/DX2                !
 ! R49   R(28,29)                1.3521         estimate D2E/DX2                !
 ! R50   R(28,35)                1.4764         estimate D2E/DX2                !
 ! R51   R(28,58)                1.4772         estimate D2E/DX2                !
 ! R52   R(29,30)                1.4759         estimate D2E/DX2                !
 ! R53   R(29,38)                1.4772         estimate D2E/DX2                !
 ! R54   R(30,31)                1.3521         estimate D2E/DX2                !
 ! R55   R(30,39)                1.4772         estimate D2E/DX2                !
 ! R56   R(31,32)                1.4773         estimate D2E/DX2                !
 ! R57   R(31,42)                1.4764         estimate D2E/DX2                !
 ! R58   R(32,44)                1.4773         estimate D2E/DX2                !
 ! R59   R(32,58)                1.352          estimate D2E/DX2                !
 ! R60   R(33,34)                1.4764         estimate D2E/DX2                !
 ! R61   R(33,46)                1.3521         estimate D2E/DX2                !
 ! R62   R(33,58)                1.4772         estimate D2E/DX2                !
 ! R63   R(34,35)                1.4759         estimate D2E/DX2                !
 ! R64   R(34,47)                1.3515         estimate D2E/DX2                !
 ! R65   R(35,36)                1.3515         estimate D2E/DX2                !
 ! R66   R(36,37)                1.4757         estimate D2E/DX2                !
 ! R67   R(37,38)                1.3516         estimate D2E/DX2                !
 ! R68   R(38,56)                1.4785         estimate D2E/DX2                !
 ! R69   R(39,40)                1.3516         estimate D2E/DX2                !
 ! R70   R(39,56)                1.4782         estimate D2E/DX2                !
 ! R71   R(40,41)                1.4751         estimate D2E/DX2                !
 ! R72   R(40,57)                1.4743         estimate D2E/DX2                !
 ! R73   R(41,42)                1.3516         estimate D2E/DX2                !
 ! R74   R(41,55)                1.4755         estimate D2E/DX2                !
 ! R75   R(42,43)                1.4764         estimate D2E/DX2                !
 ! R76   R(43,44)                1.4764         estimate D2E/DX2                !
 ! R77   R(43,53)                1.3516         estimate D2E/DX2                !
 ! R78   R(44,45)                1.3521         estimate D2E/DX2                !
 ! R79   R(45,46)                1.4759         estimate D2E/DX2                !
 ! R80   R(45,51)                1.4772         estimate D2E/DX2                !
 ! R81   R(46,49)                1.4772         estimate D2E/DX2                !
 ! R82   R(47,48)                1.4757         estimate D2E/DX2                !
 ! R83   R(48,49)                1.3516         estimate D2E/DX2                !
 ! R84   R(49,50)                1.4785         estimate D2E/DX2                !
 ! R85   R(50,51)                1.4782         estimate D2E/DX2                !
 ! R86   R(51,52)                1.3516         estimate D2E/DX2                !
 ! R87   R(52,53)                1.4751         estimate D2E/DX2                !
 ! R88   R(53,54)                1.4755         estimate D2E/DX2                !
 ! R89   R(54,55)                1.3517         estimate D2E/DX2                !
 ! R90   R(59,60)                1.1375         estimate D2E/DX2                !
 ! R91   R(59,61)                1.5046         estimate D2E/DX2                !
 ! R92   R(61,62)                1.1105         estimate D2E/DX2                !
 ! A1    A(2,1,7)              120.386          estimate D2E/DX2                !
 ! A2    A(2,1,61)             120.1606         estimate D2E/DX2                !
 ! A3    A(7,1,61)             107.8774         estimate D2E/DX2                !
 ! A4    A(1,2,3)              121.2496         estimate D2E/DX2                !
 ! A5    A(1,2,9)              120.3721         estimate D2E/DX2                !
 ! A6    A(3,2,9)              107.1609         estimate D2E/DX2                !
 ! A7    A(2,3,4)              118.9334         estimate D2E/DX2                !
 ! A8    A(2,3,10)             108.3464         estimate D2E/DX2                !
 ! A9    A(4,3,10)             118.0588         estimate D2E/DX2                !
 ! A10   A(3,4,13)             124.2409         estimate D2E/DX2                !
 ! A11   A(3,4,59)             113.2663         estimate D2E/DX2                !
 ! A12   A(13,4,59)            101.9142         estimate D2E/DX2                !
 ! A13   A(6,5,17)             120.386          estimate D2E/DX2                !
 ! A14   A(6,5,61)             107.8774         estimate D2E/DX2                !
 ! A15   A(17,5,61)            120.1606         estimate D2E/DX2                !
 ! A16   A(5,6,7)              108.87           estimate D2E/DX2                !
 ! A17   A(5,6,18)             119.7944         estimate D2E/DX2                !
 ! A18   A(7,6,18)             119.4567         estimate D2E/DX2                !
 ! A19   A(1,7,6)              108.87           estimate D2E/DX2                !
 ! A20   A(1,7,8)              119.7944         estimate D2E/DX2                !
 ! A21   A(6,7,8)              119.4567         estimate D2E/DX2                !
 ! A22   A(7,8,55)             119.7905         estimate D2E/DX2                !
 ! A23   A(7,8,57)             119.7553         estimate D2E/DX2                !
 ! A24   A(55,8,57)            107.9481         estimate D2E/DX2                !
 ! A25   A(2,9,27)             108.0122         estimate D2E/DX2                !
 ! A26   A(2,9,57)             119.8552         estimate D2E/DX2                !
 ! A27   A(27,9,57)            119.3435         estimate D2E/DX2                !
 ! A28   A(3,10,11)            119.9694         estimate D2E/DX2                !
 ! A29   A(3,10,27)            107.2936         estimate D2E/DX2                !
 ! A30   A(11,10,27)           119.3208         estimate D2E/DX2                !
 ! A31   A(10,11,12)           120.276          estimate D2E/DX2                !
 ! A32   A(10,11,37)           119.1283         estimate D2E/DX2                !
 ! A33   A(12,11,37)           107.787          estimate D2E/DX2                !
 ! A34   A(11,12,13)           119.4468         estimate D2E/DX2                !
 ! A35   A(11,12,26)           107.9362         estimate D2E/DX2                !
 ! A36   A(13,12,26)           119.4414         estimate D2E/DX2                !
 ! A37   A(4,13,12)            117.4381         estimate D2E/DX2                !
 ! A38   A(4,13,14)            107.6037         estimate D2E/DX2                !
 ! A39   A(12,13,14)           119.4285         estimate D2E/DX2                !
 ! A40   A(13,14,15)           107.6037         estimate D2E/DX2                !
 ! A41   A(13,14,24)           119.4285         estimate D2E/DX2                !
 ! A42   A(15,14,24)           117.4381         estimate D2E/DX2                !
 ! A43   A(14,15,16)           124.2409         estimate D2E/DX2                !
 ! A44   A(14,15,59)           101.9142         estimate D2E/DX2                !
 ! A45   A(16,15,59)           113.2663         estimate D2E/DX2                !
 ! A46   A(15,16,17)           118.9334         estimate D2E/DX2                !
 ! A47   A(15,16,22)           118.0588         estimate D2E/DX2                !
 ! A48   A(17,16,22)           108.3464         estimate D2E/DX2                !
 ! A49   A(5,17,16)            121.2496         estimate D2E/DX2                !
 ! A50   A(5,17,20)            120.3721         estimate D2E/DX2                !
 ! A51   A(16,17,20)           107.1609         estimate D2E/DX2                !
 ! A52   A(6,18,19)            119.7553         estimate D2E/DX2                !
 ! A53   A(6,18,54)            119.7905         estimate D2E/DX2                !
 ! A54   A(19,18,54)           107.9481         estimate D2E/DX2                !
 ! A55   A(18,19,20)           119.8049         estimate D2E/DX2                !
 ! A56   A(18,19,52)           107.956          estimate D2E/DX2                !
 ! A57   A(20,19,52)           119.2808         estimate D2E/DX2                !
 ! A58   A(17,20,19)           119.8552         estimate D2E/DX2                !
 ! A59   A(17,20,21)           108.0122         estimate D2E/DX2                !
 ! A60   A(19,20,21)           119.3435         estimate D2E/DX2                !
 ! A61   A(20,21,22)           109.1222         estimate D2E/DX2                !
 ! A62   A(20,21,50)           120.0668         estimate D2E/DX2                !
 ! A63   A(22,21,50)           120.092          estimate D2E/DX2                !
 ! A64   A(16,22,21)           107.2936         estimate D2E/DX2                !
 ! A65   A(16,22,23)           119.9694         estimate D2E/DX2                !
 ! A66   A(21,22,23)           119.3208         estimate D2E/DX2                !
 ! A67   A(22,23,24)           120.276          estimate D2E/DX2                !
 ! A68   A(22,23,48)           119.1283         estimate D2E/DX2                !
 ! A69   A(24,23,48)           107.787          estimate D2E/DX2                !
 ! A70   A(14,24,23)           119.4468         estimate D2E/DX2                !
 ! A71   A(14,24,25)           119.4414         estimate D2E/DX2                !
 ! A72   A(23,24,25)           107.9362         estimate D2E/DX2                !
 ! A73   A(24,25,26)           121.1115         estimate D2E/DX2                !
 ! A74   A(24,25,47)           107.9898         estimate D2E/DX2                !
 ! A75   A(26,25,47)           119.8987         estimate D2E/DX2                !
 ! A76   A(12,26,25)           121.1115         estimate D2E/DX2                !
 ! A77   A(12,26,36)           107.9898         estimate D2E/DX2                !
 ! A78   A(25,26,36)           119.8987         estimate D2E/DX2                !
 ! A79   A(9,27,10)            109.1222         estimate D2E/DX2                !
 ! A80   A(9,27,56)            120.0668         estimate D2E/DX2                !
 ! A81   A(10,27,56)           120.092          estimate D2E/DX2                !
 ! A82   A(29,28,35)           119.9336         estimate D2E/DX2                !
 ! A83   A(29,28,58)           119.9885         estimate D2E/DX2                !
 ! A84   A(35,28,58)           107.9917         estimate D2E/DX2                !
 ! A85   A(28,29,30)           120.0187         estimate D2E/DX2                !
 ! A86   A(28,29,38)           120.019          estimate D2E/DX2                !
 ! A87   A(30,29,38)           108.0368         estimate D2E/DX2                !
 ! A88   A(29,30,31)           120.0214         estimate D2E/DX2                !
 ! A89   A(29,30,39)           108.0147         estimate D2E/DX2                !
 ! A90   A(31,30,39)           120.025          estimate D2E/DX2                !
 ! A91   A(30,31,32)           119.9844         estimate D2E/DX2                !
 ! A92   A(30,31,42)           119.9309         estimate D2E/DX2                !
 ! A93   A(32,31,42)           107.9881         estimate D2E/DX2                !
 ! A94   A(31,32,44)           107.9762         estimate D2E/DX2                !
 ! A95   A(31,32,58)           119.9883         estimate D2E/DX2                !
 ! A96   A(44,32,58)           119.9883         estimate D2E/DX2                !
 ! A97   A(34,33,46)           119.9336         estimate D2E/DX2                !
 ! A98   A(34,33,58)           107.9917         estimate D2E/DX2                !
 ! A99   A(46,33,58)           119.9885         estimate D2E/DX2                !
 ! A100  A(33,34,35)           108.0244         estimate D2E/DX2                !
 ! A101  A(33,34,47)           120.0053         estimate D2E/DX2                !
 ! A102  A(35,34,47)           119.9687         estimate D2E/DX2                !
 ! A103  A(28,35,34)           108.0245         estimate D2E/DX2                !
 ! A104  A(28,35,36)           120.0053         estimate D2E/DX2                !
 ! A105  A(34,35,36)           119.9686         estimate D2E/DX2                !
 ! A106  A(26,36,35)           120.132          estimate D2E/DX2                !
 ! A107  A(26,36,37)           108.0037         estimate D2E/DX2                !
 ! A108  A(35,36,37)           120.0862         estimate D2E/DX2                !
 ! A109  A(11,37,36)           108.2544         estimate D2E/DX2                !
 ! A110  A(11,37,38)           120.3146         estimate D2E/DX2                !
 ! A111  A(36,37,38)           119.9392         estimate D2E/DX2                !
 ! A112  A(29,38,37)           120.003          estimate D2E/DX2                !
 ! A113  A(29,38,56)           108.0253         estimate D2E/DX2                !
 ! A114  A(37,38,56)           120.5563         estimate D2E/DX2                !
 ! A115  A(30,39,40)           119.9994         estimate D2E/DX2                !
 ! A116  A(30,39,56)           108.0466         estimate D2E/DX2                !
 ! A117  A(40,39,56)           120.4904         estimate D2E/DX2                !
 ! A118  A(39,40,41)           119.9336         estimate D2E/DX2                !
 ! A119  A(39,40,57)           120.2864         estimate D2E/DX2                !
 ! A120  A(41,40,57)           108.166          estimate D2E/DX2                !
 ! A121  A(40,41,42)           120.1249         estimate D2E/DX2                !
 ! A122  A(40,41,55)           107.8087         estimate D2E/DX2                !
 ! A123  A(42,41,55)           120.1014         estimate D2E/DX2                !
 ! A124  A(31,42,41)           119.9758         estimate D2E/DX2                !
 ! A125  A(31,42,43)           108.0231         estimate D2E/DX2                !
 ! A126  A(41,42,43)           119.9387         estimate D2E/DX2                !
 ! A127  A(42,43,44)           108.0231         estimate D2E/DX2                !
 ! A128  A(42,43,53)           119.9387         estimate D2E/DX2                !
 ! A129  A(44,43,53)           119.9758         estimate D2E/DX2                !
 ! A130  A(32,44,43)           107.9881         estimate D2E/DX2                !
 ! A131  A(32,44,45)           119.9844         estimate D2E/DX2                !
 ! A132  A(43,44,45)           119.9309         estimate D2E/DX2                !
 ! A133  A(44,45,46)           120.0214         estimate D2E/DX2                !
 ! A134  A(44,45,51)           120.025          estimate D2E/DX2                !
 ! A135  A(46,45,51)           108.0147         estimate D2E/DX2                !
 ! A136  A(33,46,45)           120.0187         estimate D2E/DX2                !
 ! A137  A(33,46,49)           120.019          estimate D2E/DX2                !
 ! A138  A(45,46,49)           108.0368         estimate D2E/DX2                !
 ! A139  A(25,47,34)           120.132          estimate D2E/DX2                !
 ! A140  A(25,47,48)           108.0037         estimate D2E/DX2                !
 ! A141  A(34,47,48)           120.0862         estimate D2E/DX2                !
 ! A142  A(23,48,47)           108.2544         estimate D2E/DX2                !
 ! A143  A(23,48,49)           120.3146         estimate D2E/DX2                !
 ! A144  A(47,48,49)           119.9392         estimate D2E/DX2                !
 ! A145  A(46,49,48)           120.003          estimate D2E/DX2                !
 ! A146  A(46,49,50)           108.0253         estimate D2E/DX2                !
 ! A147  A(48,49,50)           120.5563         estimate D2E/DX2                !
 ! A148  A(21,50,49)           120.5683         estimate D2E/DX2                !
 ! A149  A(21,50,51)           120.5241         estimate D2E/DX2                !
 ! A150  A(49,50,51)           107.8759         estimate D2E/DX2                !
 ! A151  A(45,51,50)           108.0466         estimate D2E/DX2                !
 ! A152  A(45,51,52)           119.9994         estimate D2E/DX2                !
 ! A153  A(50,51,52)           120.4904         estimate D2E/DX2                !
 ! A154  A(19,52,51)           120.2864         estimate D2E/DX2                !
 ! A155  A(19,52,53)           108.166          estimate D2E/DX2                !
 ! A156  A(51,52,53)           119.9336         estimate D2E/DX2                !
 ! A157  A(43,53,52)           120.1249         estimate D2E/DX2                !
 ! A158  A(43,53,54)           120.1014         estimate D2E/DX2                !
 ! A159  A(52,53,54)           107.8087         estimate D2E/DX2                !
 ! A160  A(18,54,53)           108.1021         estimate D2E/DX2                !
 ! A161  A(18,54,55)           120.7441         estimate D2E/DX2                !
 ! A162  A(53,54,55)           119.9599         estimate D2E/DX2                !
 ! A163  A(8,55,41)            108.1021         estimate D2E/DX2                !
 ! A164  A(8,55,54)            120.7441         estimate D2E/DX2                !
 ! A165  A(41,55,54)           119.9599         estimate D2E/DX2                !
 ! A166  A(27,56,38)           120.5683         estimate D2E/DX2                !
 ! A167  A(27,56,39)           120.5241         estimate D2E/DX2                !
 ! A168  A(38,56,39)           107.8759         estimate D2E/DX2                !
 ! A169  A(8,57,9)             119.8049         estimate D2E/DX2                !
 ! A170  A(8,57,40)            107.956          estimate D2E/DX2                !
 ! A171  A(9,57,40)            119.2808         estimate D2E/DX2                !
 ! A172  A(28,58,32)           119.996          estimate D2E/DX2                !
 ! A173  A(28,58,33)           107.9664         estimate D2E/DX2                !
 ! A174  A(32,58,33)           119.996          estimate D2E/DX2                !
 ! A175  A(4,59,15)            110.7478         estimate D2E/DX2                !
 ! A176  A(4,59,60)            101.7658         estimate D2E/DX2                !
 ! A177  A(4,59,61)            117.7865         estimate D2E/DX2                !
 ! A178  A(15,59,60)           101.7658         estimate D2E/DX2                !
 ! A179  A(15,59,61)           117.7865         estimate D2E/DX2                !
 ! A180  A(60,59,61)           103.8427         estimate D2E/DX2                !
 ! A181  A(1,61,5)             106.3669         estimate D2E/DX2                !
 ! A182  A(1,61,59)            104.7401         estimate D2E/DX2                !
 ! A183  A(1,61,62)            113.1055         estimate D2E/DX2                !
 ! A184  A(5,61,59)            104.7401         estimate D2E/DX2                !
 ! A185  A(5,61,62)            113.1055         estimate D2E/DX2                !
 ! A186  A(59,61,62)           113.9668         estimate D2E/DX2                !
 ! D1    D(7,1,2,3)            136.904          estimate D2E/DX2                !
 ! D2    D(7,1,2,9)             -2.1774         estimate D2E/DX2                !
 ! D3    D(61,1,2,3)            -1.8876         estimate D2E/DX2                !
 ! D4    D(61,1,2,9)          -140.969          estimate D2E/DX2                !
 ! D5    D(2,1,7,6)           -140.9422         estimate D2E/DX2                !
 ! D6    D(2,1,7,8)              1.6714         estimate D2E/DX2                !
 ! D7    D(61,1,7,6)             2.2945         estimate D2E/DX2                !
 ! D8    D(61,1,7,8)           144.9081         estimate D2E/DX2                !
 ! D9    D(2,1,61,5)           139.7103         estimate D2E/DX2                !
 ! D10   D(2,1,61,59)           29.1329         estimate D2E/DX2                !
 ! D11   D(2,1,61,62)          -95.5415         estimate D2E/DX2                !
 ! D12   D(7,1,61,5)            -3.6246         estimate D2E/DX2                !
 ! D13   D(7,1,61,59)         -114.202          estimate D2E/DX2                !
 ! D14   D(7,1,61,62)          121.1236         estimate D2E/DX2                !
 ! D15   D(1,2,3,4)             -5.2204         estimate D2E/DX2                !
 ! D16   D(1,2,3,10)          -143.7725         estimate D2E/DX2                !
 ! D17   D(9,2,3,4)            138.5214         estimate D2E/DX2                !
 ! D18   D(9,2,3,10)            -0.0308         estimate D2E/DX2                !
 ! D19   D(1,2,9,27)           142.6065         estimate D2E/DX2                !
 ! D20   D(1,2,9,57)             1.2739         estimate D2E/DX2                !
 ! D21   D(3,2,9,27)            -1.5164         estimate D2E/DX2                !
 ! D22   D(3,2,9,57)          -142.849          estimate D2E/DX2                !
 ! D23   D(2,3,4,13)          -142.8985         estimate D2E/DX2                !
 ! D24   D(2,3,4,59)           -18.5315         estimate D2E/DX2                !
 ! D25   D(10,3,4,13)           -8.2942         estimate D2E/DX2                !
 ! D26   D(10,3,4,59)          116.0728         estimate D2E/DX2                !
 ! D27   D(2,3,10,11)          142.0575         estimate D2E/DX2                !
 ! D28   D(2,3,10,27)            1.5617         estimate D2E/DX2                !
 ! D29   D(4,3,10,11)            3.0891         estimate D2E/DX2                !
 ! D30   D(4,3,10,27)         -137.4067         estimate D2E/DX2                !
 ! D31   D(3,4,13,12)            9.3186         estimate D2E/DX2                !
 ! D32   D(3,4,13,14)          147.5248         estimate D2E/DX2                !
 ! D33   D(59,4,13,12)        -119.8757         estimate D2E/DX2                !
 ! D34   D(59,4,13,14)          18.3306         estimate D2E/DX2                !
 ! D35   D(3,4,59,15)         -167.6225         estimate D2E/DX2                !
 ! D36   D(3,4,59,60)          -60.0665         estimate D2E/DX2                !
 ! D37   D(3,4,59,61)           52.6394         estimate D2E/DX2                !
 ! D38   D(13,4,59,15)         -31.841          estimate D2E/DX2                !
 ! D39   D(13,4,59,60)          75.715          estimate D2E/DX2                !
 ! D40   D(13,4,59,61)        -171.5791         estimate D2E/DX2                !
 ! D41   D(17,5,6,7)           140.9422         estimate D2E/DX2                !
 ! D42   D(17,5,6,18)           -1.6714         estimate D2E/DX2                !
 ! D43   D(61,5,6,7)            -2.2945         estimate D2E/DX2                !
 ! D44   D(61,5,6,18)         -144.9081         estimate D2E/DX2                !
 ! D45   D(6,5,17,16)         -136.9041         estimate D2E/DX2                !
 ! D46   D(6,5,17,20)            2.1774         estimate D2E/DX2                !
 ! D47   D(61,5,17,16)           1.8876         estimate D2E/DX2                !
 ! D48   D(61,5,17,20)         140.969          estimate D2E/DX2                !
 ! D49   D(6,5,61,1)             3.6246         estimate D2E/DX2                !
 ! D50   D(6,5,61,59)          114.202          estimate D2E/DX2                !
 ! D51   D(6,5,61,62)         -121.1236         estimate D2E/DX2                !
 ! D52   D(17,5,61,1)         -139.7103         estimate D2E/DX2                !
 ! D53   D(17,5,61,59)         -29.1329         estimate D2E/DX2                !
 ! D54   D(17,5,61,62)          95.5415         estimate D2E/DX2                !
 ! D55   D(5,6,7,1)              0.0            estimate D2E/DX2                !
 ! D56   D(5,6,7,8)           -142.76           estimate D2E/DX2                !
 ! D57   D(18,6,7,1)           142.76           estimate D2E/DX2                !
 ! D58   D(18,6,7,8)             0.0            estimate D2E/DX2                !
 ! D59   D(5,6,18,19)            0.2266         estimate D2E/DX2                !
 ! D60   D(5,6,18,54)          137.642          estimate D2E/DX2                !
 ! D61   D(7,6,18,19)         -138.4847         estimate D2E/DX2                !
 ! D62   D(7,6,18,54)           -1.0692         estimate D2E/DX2                !
 ! D63   D(1,7,8,55)          -137.642          estimate D2E/DX2                !
 ! D64   D(1,7,8,57)            -0.2266         estimate D2E/DX2                !
 ! D65   D(6,7,8,55)             1.0692         estimate D2E/DX2                !
 ! D66   D(6,7,8,57)           138.4847         estimate D2E/DX2                !
 ! D67   D(7,8,55,41)          142.5991         estimate D2E/DX2                !
 ! D68   D(7,8,55,54)           -1.0833         estimate D2E/DX2                !
 ! D69   D(57,8,55,41)           0.7336         estimate D2E/DX2                !
 ! D70   D(57,8,55,54)        -142.9487         estimate D2E/DX2                !
 ! D71   D(7,8,57,9)            -0.6586         estimate D2E/DX2                !
 ! D72   D(7,8,57,40)         -141.7492         estimate D2E/DX2                !
 ! D73   D(55,8,57,9)          141.2226         estimate D2E/DX2                !
 ! D74   D(55,8,57,40)           0.132          estimate D2E/DX2                !
 ! D75   D(2,9,27,10)            2.529          estimate D2E/DX2                !
 ! D76   D(2,9,27,56)         -141.9492         estimate D2E/DX2                !
 ! D77   D(57,9,27,10)         144.0932         estimate D2E/DX2                !
 ! D78   D(57,9,27,56)          -0.385          estimate D2E/DX2                !
 ! D79   D(2,9,57,8)             0.1688         estimate D2E/DX2                !
 ! D80   D(2,9,57,40)          136.9316         estimate D2E/DX2                !
 ! D81   D(27,9,57,8)         -136.8597         estimate D2E/DX2                !
 ! D82   D(27,9,57,40)          -0.097          estimate D2E/DX2                !
 ! D83   D(3,10,11,12)           0.8292         estimate D2E/DX2                !
 ! D84   D(3,10,11,37)        -136.0779         estimate D2E/DX2                !
 ! D85   D(27,10,11,12)        136.6728         estimate D2E/DX2                !
 ! D86   D(27,10,11,37)         -0.2344         estimate D2E/DX2                !
 ! D87   D(3,10,27,9)           -2.5273         estimate D2E/DX2                !
 ! D88   D(3,10,27,56)         141.9405         estimate D2E/DX2                !
 ! D89   D(11,10,27,9)        -143.3259         estimate D2E/DX2                !
 ! D90   D(11,10,27,56)          1.1419         estimate D2E/DX2                !
 ! D91   D(10,11,12,13)          0.2623         estimate D2E/DX2                !
 ! D92   D(10,11,12,26)       -140.6358         estimate D2E/DX2                !
 ! D93   D(37,11,12,13)        141.4522         estimate D2E/DX2                !
 ! D94   D(37,11,12,26)          0.5542         estimate D2E/DX2                !
 ! D95   D(10,11,37,36)        142.2487         estimate D2E/DX2                !
 ! D96   D(10,11,37,38)         -1.0363         estimate D2E/DX2                !
 ! D97   D(12,11,37,36)          0.537          estimate D2E/DX2                !
 ! D98   D(12,11,37,38)       -142.748          estimate D2E/DX2                !
 ! D99   D(11,12,13,4)          -4.8302         estimate D2E/DX2                !
 ! D100  D(11,12,13,14)       -137.9982         estimate D2E/DX2                !
 ! D101  D(26,12,13,4)         131.6163         estimate D2E/DX2                !
 ! D102  D(26,12,13,14)         -1.5517         estimate D2E/DX2                !
 ! D103  D(11,12,26,25)        142.4791         estimate D2E/DX2                !
 ! D104  D(11,12,26,36)         -1.4328         estimate D2E/DX2                !
 ! D105  D(13,12,26,25)          1.5786         estimate D2E/DX2                !
 ! D106  D(13,12,26,36)       -142.3334         estimate D2E/DX2                !
 ! D107  D(4,13,14,15)           0.0            estimate D2E/DX2                !
 ! D108  D(4,13,14,24)        -137.2261         estimate D2E/DX2                !
 ! D109  D(12,13,14,15)        137.2261         estimate D2E/DX2                !
 ! D110  D(12,13,14,24)          0.0            estimate D2E/DX2                !
 ! D111  D(13,14,15,16)       -147.5249         estimate D2E/DX2                !
 ! D112  D(13,14,15,59)        -18.3306         estimate D2E/DX2                !
 ! D113  D(24,14,15,16)         -9.3186         estimate D2E/DX2                !
 ! D114  D(24,14,15,59)        119.8757         estimate D2E/DX2                !
 ! D115  D(13,14,24,23)        137.9982         estimate D2E/DX2                !
 ! D116  D(13,14,24,25)          1.5517         estimate D2E/DX2                !
 ! D117  D(15,14,24,23)          4.8302         estimate D2E/DX2                !
 ! D118  D(15,14,24,25)       -131.6163         estimate D2E/DX2                !
 ! D119  D(14,15,16,17)        142.8985         estimate D2E/DX2                !
 ! D120  D(14,15,16,22)          8.2943         estimate D2E/DX2                !
 ! D121  D(59,15,16,17)         18.5314         estimate D2E/DX2                !
 ! D122  D(59,15,16,22)       -116.0728         estimate D2E/DX2                !
 ! D123  D(14,15,59,4)          31.841          estimate D2E/DX2                !
 ! D124  D(14,15,59,60)        -75.715          estimate D2E/DX2                !
 ! D125  D(14,15,59,61)        171.5791         estimate D2E/DX2                !
 ! D126  D(16,15,59,4)         167.6225         estimate D2E/DX2                !
 ! D127  D(16,15,59,60)         60.0666         estimate D2E/DX2                !
 ! D128  D(16,15,59,61)        -52.6394         estimate D2E/DX2                !
 ! D129  D(15,16,17,5)           5.2204         estimate D2E/DX2                !
 ! D130  D(15,16,17,20)       -138.5213         estimate D2E/DX2                !
 ! D131  D(22,16,17,5)         143.7725         estimate D2E/DX2                !
 ! D132  D(22,16,17,20)          0.0308         estimate D2E/DX2                !
 ! D133  D(15,16,22,21)        137.4067         estimate D2E/DX2                !
 ! D134  D(15,16,22,23)         -3.0892         estimate D2E/DX2                !
 ! D135  D(17,16,22,21)         -1.5616         estimate D2E/DX2                !
 ! D136  D(17,16,22,23)       -142.0575         estimate D2E/DX2                !
 ! D137  D(5,17,20,19)          -1.2739         estimate D2E/DX2                !
 ! D138  D(5,17,20,21)        -142.6065         estimate D2E/DX2                !
 ! D139  D(16,17,20,19)        142.849          estimate D2E/DX2                !
 ! D140  D(16,17,20,21)          1.5164         estimate D2E/DX2                !
 ! D141  D(6,18,19,20)           0.6586         estimate D2E/DX2                !
 ! D142  D(6,18,19,52)         141.7492         estimate D2E/DX2                !
 ! D143  D(54,18,19,20)       -141.2226         estimate D2E/DX2                !
 ! D144  D(54,18,19,52)         -0.132          estimate D2E/DX2                !
 ! D145  D(6,18,54,53)        -142.5991         estimate D2E/DX2                !
 ! D146  D(6,18,54,55)           1.0833         estimate D2E/DX2                !
 ! D147  D(19,18,54,53)         -0.7336         estimate D2E/DX2                !
 ! D148  D(19,18,54,55)        142.9487         estimate D2E/DX2                !
 ! D149  D(18,19,20,17)         -0.1688         estimate D2E/DX2                !
 ! D150  D(18,19,20,21)        136.8597         estimate D2E/DX2                !
 ! D151  D(52,19,20,17)       -136.9316         estimate D2E/DX2                !
 ! D152  D(52,19,20,21)          0.097          estimate D2E/DX2                !
 ! D153  D(18,19,52,51)       -142.1643         estimate D2E/DX2                !
 ! D154  D(18,19,52,53)          0.9482         estimate D2E/DX2                !
 ! D155  D(20,19,52,51)         -0.835          estimate D2E/DX2                !
 ! D156  D(20,19,52,53)        142.2775         estimate D2E/DX2                !
 ! D157  D(17,20,21,22)         -2.529          estimate D2E/DX2                !
 ! D158  D(17,20,21,50)        141.9492         estimate D2E/DX2                !
 ! D159  D(19,20,21,22)       -144.0932         estimate D2E/DX2                !
 ! D160  D(19,20,21,50)          0.385          estimate D2E/DX2                !
 ! D161  D(20,21,22,16)          2.5273         estimate D2E/DX2                !
 ! D162  D(20,21,22,23)        143.3259         estimate D2E/DX2                !
 ! D163  D(50,21,22,16)       -141.9405         estimate D2E/DX2                !
 ! D164  D(50,21,22,23)         -1.1419         estimate D2E/DX2                !
 ! D165  D(20,21,50,49)       -139.8152         estimate D2E/DX2                !
 ! D166  D(20,21,50,51)         -0.1646         estimate D2E/DX2                !
 ! D167  D(22,21,50,49)          0.8044         estimate D2E/DX2                !
 ! D168  D(22,21,50,51)        140.455          estimate D2E/DX2                !
 ! D169  D(16,22,23,24)         -0.8292         estimate D2E/DX2                !
 ! D170  D(16,22,23,48)        136.078          estimate D2E/DX2                !
 ! D171  D(21,22,23,24)       -136.6728         estimate D2E/DX2                !
 ! D172  D(21,22,23,48)          0.2344         estimate D2E/DX2                !
 ! D173  D(22,23,24,14)         -0.2623         estimate D2E/DX2                !
 ! D174  D(22,23,24,25)        140.6358         estimate D2E/DX2                !
 ! D175  D(48,23,24,14)       -141.4522         estimate D2E/DX2                !
 ! D176  D(48,23,24,25)         -0.5542         estimate D2E/DX2                !
 ! D177  D(22,23,48,47)       -142.2487         estimate D2E/DX2                !
 ! D178  D(22,23,48,49)          1.0363         estimate D2E/DX2                !
 ! D179  D(24,23,48,47)         -0.537          estimate D2E/DX2                !
 ! D180  D(24,23,48,49)        142.748          estimate D2E/DX2                !
 ! D181  D(14,24,25,26)         -1.5786         estimate D2E/DX2                !
 ! D182  D(14,24,25,47)        142.3334         estimate D2E/DX2                !
 ! D183  D(23,24,25,26)       -142.4791         estimate D2E/DX2                !
 ! D184  D(23,24,25,47)          1.4328         estimate D2E/DX2                !
 ! D185  D(24,25,26,12)          0.0            estimate D2E/DX2                !
 ! D186  D(24,25,26,36)        139.7412         estimate D2E/DX2                !
 ! D187  D(47,25,26,12)       -139.7412         estimate D2E/DX2                !
 ! D188  D(47,25,26,36)          0.0            estimate D2E/DX2                !
 ! D189  D(24,25,47,34)       -144.7141         estimate D2E/DX2                !
 ! D190  D(24,25,47,48)         -1.765          estimate D2E/DX2                !
 ! D191  D(26,25,47,34)         -0.2863         estimate D2E/DX2                !
 ! D192  D(26,25,47,48)        142.6629         estimate D2E/DX2                !
 ! D193  D(12,26,36,35)        144.7141         estimate D2E/DX2                !
 ! D194  D(12,26,36,37)          1.765          estimate D2E/DX2                !
 ! D195  D(25,26,36,35)          0.2863         estimate D2E/DX2                !
 ! D196  D(25,26,36,37)       -142.6629         estimate D2E/DX2                !
 ! D197  D(9,27,56,38)         139.8152         estimate D2E/DX2                !
 ! D198  D(9,27,56,39)           0.1646         estimate D2E/DX2                !
 ! D199  D(10,27,56,38)         -0.8044         estimate D2E/DX2                !
 ! D200  D(10,27,56,39)       -140.455          estimate D2E/DX2                !
 ! D201  D(35,28,29,30)        138.4853         estimate D2E/DX2                !
 ! D202  D(35,28,29,38)          0.1684         estimate D2E/DX2                !
 ! D203  D(58,28,29,30)          0.4288         estimate D2E/DX2                !
 ! D204  D(58,28,29,38)       -137.8881         estimate D2E/DX2                !
 ! D205  D(29,28,35,34)       -142.2893         estimate D2E/DX2                !
 ! D206  D(29,28,35,36)          0.3195         estimate D2E/DX2                !
 ! D207  D(58,28,35,34)          0.2166         estimate D2E/DX2                !
 ! D208  D(58,28,35,36)        142.8254         estimate D2E/DX2                !
 ! D209  D(29,28,58,32)         -0.4329         estimate D2E/DX2                !
 ! D210  D(29,28,58,33)        142.1314         estimate D2E/DX2                !
 ! D211  D(35,28,58,32)       -142.9146         estimate D2E/DX2                !
 ! D212  D(35,28,58,33)         -0.3502         estimate D2E/DX2                !
 ! D213  D(28,29,30,31)          0.0063         estimate D2E/DX2                !
 ! D214  D(28,29,30,39)       -142.7075         estimate D2E/DX2                !
 ! D215  D(38,29,30,31)        142.7369         estimate D2E/DX2                !
 ! D216  D(38,29,30,39)          0.0231         estimate D2E/DX2                !
 ! D217  D(28,29,38,37)         -1.0707         estimate D2E/DX2                !
 ! D218  D(28,29,38,56)        142.5635         estimate D2E/DX2                !
 ! D219  D(30,29,38,37)       -143.8011         estimate D2E/DX2                !
 ! D220  D(30,29,38,56)         -0.167          estimate D2E/DX2                !
 ! D221  D(29,30,31,32)         -0.4371         estimate D2E/DX2                !
 ! D222  D(29,30,31,42)       -138.4765         estimate D2E/DX2                !
 ! D223  D(39,30,31,32)        137.8508         estimate D2E/DX2                !
 ! D224  D(39,30,31,42)         -0.1887         estimate D2E/DX2                !
 ! D225  D(29,30,39,40)        143.6728         estimate D2E/DX2                !
 ! D226  D(29,30,39,56)          0.1296         estimate D2E/DX2                !
 ! D227  D(31,30,39,40)          0.9606         estimate D2E/DX2                !
 ! D228  D(31,30,39,56)       -142.5826         estimate D2E/DX2                !
 ! D229  D(30,31,32,44)       -142.1219         estimate D2E/DX2                !
 ! D230  D(30,31,32,58)          0.4327         estimate D2E/DX2                !
 ! D231  D(42,31,32,44)          0.3448         estimate D2E/DX2                !
 ! D232  D(42,31,32,58)        142.8994         estimate D2E/DX2                !
 ! D233  D(30,31,42,41)         -0.24           estimate D2E/DX2                !
 ! D234  D(30,31,42,43)        142.2772         estimate D2E/DX2                !
 ! D235  D(32,31,42,41)       -142.7304         estimate D2E/DX2                !
 ! D236  D(32,31,42,43)         -0.2132         estimate D2E/DX2                !
 ! D237  D(31,32,44,43)         -0.3448         estimate D2E/DX2                !
 ! D238  D(31,32,44,45)        142.1219         estimate D2E/DX2                !
 ! D239  D(58,32,44,43)       -142.8994         estimate D2E/DX2                !
 ! D240  D(58,32,44,45)         -0.4327         estimate D2E/DX2                !
 ! D241  D(31,32,58,28)          0.0023         estimate D2E/DX2                !
 ! D242  D(31,32,58,33)       -138.1114         estimate D2E/DX2                !
 ! D243  D(44,32,58,28)        138.1114         estimate D2E/DX2                !
 ! D244  D(44,32,58,33)         -0.0023         estimate D2E/DX2                !
 ! D245  D(46,33,34,35)        142.2894         estimate D2E/DX2                !
 ! D246  D(46,33,34,47)         -0.3195         estimate D2E/DX2                !
 ! D247  D(58,33,34,35)         -0.2165         estimate D2E/DX2                !
 ! D248  D(58,33,34,47)       -142.8254         estimate D2E/DX2                !
 ! D249  D(34,33,46,45)       -138.4853         estimate D2E/DX2                !
 ! D250  D(34,33,46,49)         -0.1684         estimate D2E/DX2                !
 ! D251  D(58,33,46,45)         -0.4288         estimate D2E/DX2                !
 ! D252  D(58,33,46,49)        137.8881         estimate D2E/DX2                !
 ! D253  D(34,33,58,28)          0.3502         estimate D2E/DX2                !
 ! D254  D(34,33,58,32)        142.9146         estimate D2E/DX2                !
 ! D255  D(46,33,58,28)       -142.1314         estimate D2E/DX2                !
 ! D256  D(46,33,58,32)          0.4329         estimate D2E/DX2                !
 ! D257  D(33,34,35,28)          0.0            estimate D2E/DX2                !
 ! D258  D(33,34,35,36)       -142.6251         estimate D2E/DX2                !
 ! D259  D(47,34,35,28)        142.625          estimate D2E/DX2                !
 ! D260  D(47,34,35,36)          0.0            estimate D2E/DX2                !
 ! D261  D(33,34,47,25)        138.4834         estimate D2E/DX2                !
 ! D262  D(33,34,47,48)         -0.0454         estimate D2E/DX2                !
 ! D263  D(35,34,47,25)          0.2865         estimate D2E/DX2                !
 ! D264  D(35,34,47,48)       -138.2422         estimate D2E/DX2                !
 ! D265  D(28,35,36,26)       -138.4834         estimate D2E/DX2                !
 ! D266  D(28,35,36,37)          0.0454         estimate D2E/DX2                !
 ! D267  D(34,35,36,26)         -0.2865         estimate D2E/DX2                !
 ! D268  D(34,35,36,37)        138.2423         estimate D2E/DX2                !
 ! D269  D(26,36,37,11)         -1.425          estimate D2E/DX2                !
 ! D270  D(26,36,37,38)        142.022          estimate D2E/DX2                !
 ! D271  D(35,36,37,11)       -144.3942         estimate D2E/DX2                !
 ! D272  D(35,36,37,38)         -0.9472         estimate D2E/DX2                !
 ! D273  D(11,37,38,29)        140.5013         estimate D2E/DX2                !
 ! D274  D(11,37,38,56)          1.4032         estimate D2E/DX2                !
 ! D275  D(36,37,38,29)          1.4346         estimate D2E/DX2                !
 ! D276  D(36,37,38,56)       -137.6636         estimate D2E/DX2                !
 ! D277  D(29,38,56,27)       -143.8788         estimate D2E/DX2                !
 ! D278  D(29,38,56,39)          0.2467         estimate D2E/DX2                !
 ! D279  D(37,38,56,27)         -0.4836         estimate D2E/DX2                !
 ! D280  D(37,38,56,39)        143.6419         estimate D2E/DX2                !
 ! D281  D(30,39,40,41)         -1.2577         estimate D2E/DX2                !
 ! D282  D(30,39,40,57)       -140.1012         estimate D2E/DX2                !
 ! D283  D(56,39,40,41)        137.7733         estimate D2E/DX2                !
 ! D284  D(56,39,40,57)         -1.0703         estimate D2E/DX2                !
 ! D285  D(30,39,56,27)        143.9119         estimate D2E/DX2                !
 ! D286  D(30,39,56,38)         -0.2325         estimate D2E/DX2                !
 ! D287  D(40,39,56,27)          0.581          estimate D2E/DX2                !
 ! D288  D(40,39,56,38)       -143.5633         estimate D2E/DX2                !
 ! D289  D(39,40,41,42)          0.8297         estimate D2E/DX2                !
 ! D290  D(39,40,41,55)       -141.8664         estimate D2E/DX2                !
 ! D291  D(57,40,41,42)        144.0953         estimate D2E/DX2                !
 ! D292  D(57,40,41,55)          1.3992         estimate D2E/DX2                !
 ! D293  D(39,40,57,8)         142.1643         estimate D2E/DX2                !
 ! D294  D(39,40,57,9)           0.835          estimate D2E/DX2                !
 ! D295  D(41,40,57,8)          -0.9482         estimate D2E/DX2                !
 ! D296  D(41,40,57,9)        -142.2775         estimate D2E/DX2                !
 ! D297  D(40,41,42,31)         -0.0582         estimate D2E/DX2                !
 ! D298  D(40,41,42,43)       -138.1628         estimate D2E/DX2                !
 ! D299  D(55,41,42,31)        138.1099         estimate D2E/DX2                !
 ! D300  D(55,41,42,43)          0.0052         estimate D2E/DX2                !
 ! D301  D(40,41,55,8)          -1.3166         estimate D2E/DX2                !
 ! D302  D(40,41,55,54)        142.7013         estimate D2E/DX2                !
 ! D303  D(42,41,55,8)        -144.023          estimate D2E/DX2                !
 ! D304  D(42,41,55,54)         -0.0052         estimate D2E/DX2                !
 ! D305  D(31,42,43,44)          0.0            estimate D2E/DX2                !
 ! D306  D(31,42,43,53)       -142.5336         estimate D2E/DX2                !
 ! D307  D(41,42,43,44)        142.5336         estimate D2E/DX2                !
 ! D308  D(41,42,43,53)          0.0            estimate D2E/DX2                !
 ! D309  D(42,43,44,32)          0.2132         estimate D2E/DX2                !
 ! D310  D(42,43,44,45)       -142.2772         estimate D2E/DX2                !
 ! D311  D(53,43,44,32)        142.7304         estimate D2E/DX2                !
 ! D312  D(53,43,44,45)          0.24           estimate D2E/DX2                !
 ! D313  D(42,43,53,52)        138.1628         estimate D2E/DX2                !
 ! D314  D(42,43,53,54)         -0.0052         estimate D2E/DX2                !
 ! D315  D(44,43,53,52)          0.0582         estimate D2E/DX2                !
 ! D316  D(44,43,53,54)       -138.1099         estimate D2E/DX2                !
 ! D317  D(32,44,45,46)          0.4371         estimate D2E/DX2                !
 ! D318  D(32,44,45,51)       -137.8508         estimate D2E/DX2                !
 ! D319  D(43,44,45,46)        138.4765         estimate D2E/DX2                !
 ! D320  D(43,44,45,51)          0.1887         estimate D2E/DX2                !
 ! D321  D(44,45,46,33)         -0.0063         estimate D2E/DX2                !
 ! D322  D(44,45,46,49)       -142.7369         estimate D2E/DX2                !
 ! D323  D(51,45,46,33)        142.7075         estimate D2E/DX2                !
 ! D324  D(51,45,46,49)         -0.0231         estimate D2E/DX2                !
 ! D325  D(44,45,51,50)        142.5826         estimate D2E/DX2                !
 ! D326  D(44,45,51,52)         -0.9606         estimate D2E/DX2                !
 ! D327  D(46,45,51,50)         -0.1296         estimate D2E/DX2                !
 ! D328  D(46,45,51,52)       -143.6728         estimate D2E/DX2                !
 ! D329  D(33,46,49,48)          1.0707         estimate D2E/DX2                !
 ! D330  D(33,46,49,50)       -142.5635         estimate D2E/DX2                !
 ! D331  D(45,46,49,48)        143.8011         estimate D2E/DX2                !
 ! D332  D(45,46,49,50)          0.167          estimate D2E/DX2                !
 ! D333  D(25,47,48,23)          1.425          estimate D2E/DX2                !
 ! D334  D(25,47,48,49)       -142.022          estimate D2E/DX2                !
 ! D335  D(34,47,48,23)        144.3942         estimate D2E/DX2                !
 ! D336  D(34,47,48,49)          0.9472         estimate D2E/DX2                !
 ! D337  D(23,48,49,46)       -140.5013         estimate D2E/DX2                !
 ! D338  D(23,48,49,50)         -1.4032         estimate D2E/DX2                !
 ! D339  D(47,48,49,46)         -1.4346         estimate D2E/DX2                !
 ! D340  D(47,48,49,50)        137.6636         estimate D2E/DX2                !
 ! D341  D(46,49,50,21)        143.8788         estimate D2E/DX2                !
 ! D342  D(46,49,50,51)         -0.2467         estimate D2E/DX2                !
 ! D343  D(48,49,50,21)          0.4836         estimate D2E/DX2                !
 ! D344  D(48,49,50,51)       -143.6419         estimate D2E/DX2                !
 ! D345  D(21,50,51,45)       -143.9119         estimate D2E/DX2                !
 ! D346  D(21,50,51,52)         -0.581          estimate D2E/DX2                !
 ! D347  D(49,50,51,45)          0.2325         estimate D2E/DX2                !
 ! D348  D(49,50,51,52)        143.5633         estimate D2E/DX2                !
 ! D349  D(45,51,52,19)        140.1012         estimate D2E/DX2                !
 ! D350  D(45,51,52,53)          1.2577         estimate D2E/DX2                !
 ! D351  D(50,51,52,19)          1.0703         estimate D2E/DX2                !
 ! D352  D(50,51,52,53)       -137.7733         estimate D2E/DX2                !
 ! D353  D(19,52,53,43)       -144.0953         estimate D2E/DX2                !
 ! D354  D(19,52,53,54)         -1.3992         estimate D2E/DX2                !
 ! D355  D(51,52,53,43)         -0.8297         estimate D2E/DX2                !
 ! D356  D(51,52,53,54)        141.8664         estimate D2E/DX2                !
 ! D357  D(43,53,54,18)        144.023          estimate D2E/DX2                !
 ! D358  D(43,53,54,55)          0.0052         estimate D2E/DX2                !
 ! D359  D(52,53,54,18)          1.3166         estimate D2E/DX2                !
 ! D360  D(52,53,54,55)       -142.7013         estimate D2E/DX2                !
 ! D361  D(18,54,55,8)           0.0            estimate D2E/DX2                !
 ! D362  D(18,54,55,41)       -139.4755         estimate D2E/DX2                !
 ! D363  D(53,54,55,8)         139.4755         estimate D2E/DX2                !
 ! D364  D(53,54,55,41)          0.0            estimate D2E/DX2                !
 ! D365  D(4,59,61,1)          -55.6713         estimate D2E/DX2                !
 ! D366  D(4,59,61,5)         -167.4184         estimate D2E/DX2                !
 ! D367  D(4,59,61,62)          68.4552         estimate D2E/DX2                !
 ! D368  D(15,59,61,1)         167.4184         estimate D2E/DX2                !
 ! D369  D(15,59,61,5)          55.6713         estimate D2E/DX2                !
 ! D370  D(15,59,61,62)        -68.4552         estimate D2E/DX2                !
 ! D371  D(60,59,61,1)          55.8736         estimate D2E/DX2                !
 ! D372  D(60,59,61,5)         -55.8736         estimate D2E/DX2                !
 ! D373  D(60,59,61,62)        180.0            estimate D2E/DX2                !
 --------------------------------------------------------------------------------
 Trust Radius=3.00D-01 FncErr=1.00D-07 GrdErr=1.00D-06
 Number of steps in this run=    372 maximum allowed number of steps=    372.
 GradGradGradGradGradGradGradGradGradGradGradGradGradGradGradGradGradGrad

 Stoichiometry    C60H2
 Framework group  CS[SG(C4H2),X(C56)]
 Deg. of freedom    93
 Full point group                 CS      NOp   2
 Largest Abelian subgroup         CS      NOp   2
 Largest concise Abelian subgroup CS      NOp   2
                         Standard orientation:                         
 ---------------------------------------------------------------------
 Center     Atomic      Atomic             Coordinates (Angstroms)
 Number     Number       Type             X           Y           Z
 ---------------------------------------------------------------------
      1          6           0        1.943364    2.780607    1.217054
      2          6           0        1.907750    1.950007    2.315771
      3          6           0        2.647428    0.635101    2.327196
      4          6           0        3.267319    0.223531    1.198426
      5          6           0        1.943364    2.780607   -1.217054
      6          6           0        0.711612    3.440777   -0.739396
      7          6           0        0.711612    3.440777    0.739396
      8          6           0       -0.496253    3.248379    1.430168
      9          6           0        0.649485    1.747706    3.056747
     10          6           0        1.836816   -0.347061    3.071010
     11          6           0        1.778881   -1.689449    2.634579
     12          6           0        2.545082   -2.121156    1.440549
     13          6           0        3.332891   -1.185945    0.750729
     14          6           0        3.332891   -1.185945   -0.750729
     15          6           0        3.267319    0.223531   -1.198426
     16          6           0        2.647428    0.635101   -2.327196
     17          6           0        1.907750    1.950007   -2.315771
     18          6           0       -0.496253    3.248379   -1.430168
     19          6           0       -0.526562    2.384075   -2.625063
     20          6           0        0.649485    1.747706   -3.056747
     21          6           0        0.592977    0.333331   -3.484306
     22          6           0        1.836816   -0.347061   -3.071010
     23          6           0        1.778881   -1.689449   -2.634579
     24          6           0        2.545082   -2.121156   -1.440549
     25          6           0        1.703934   -3.065615   -0.677272
     26          6           0        1.703934   -3.065615    0.677272
     27          6           0        0.592977    0.333331    3.484306
     28          6           0       -1.949040   -2.733217    1.194797
     29          6           0       -1.911334   -1.934397    2.285038
     30          6           0       -2.639063   -0.650368    2.285114
     31          6           0       -3.343961   -0.272213    1.194995
     32          6           0       -3.377745   -1.140149    0.000000
     33          6           0       -1.949040   -2.733217   -1.194797
     34          6           0       -0.721535   -3.414659   -0.737957
     35          6           0       -0.721535   -3.414659    0.737957
     36          6           0        0.436896   -3.244870    1.413069
     37          6           0        0.476889   -2.379541    2.607765
     38          6           0       -0.642270   -1.740930    3.015922
     39          6           0       -1.820397    0.338680    3.015647
     40          6           0       -1.791094    1.626339    2.605959
     41          6           0       -2.555164    2.036705    1.412725
     42          6           0       -3.297799    1.131015    0.738185
     43          6           0       -3.297799    1.131015   -0.738185
     44          6           0       -3.343961   -0.272213   -1.194995
     45          6           0       -2.639063   -0.650368   -2.285114
     46          6           0       -1.911334   -1.934397   -2.285038
     47          6           0        0.436896   -3.244870   -1.413069
     48          6           0        0.476889   -2.379541   -2.607765
     49          6           0       -0.642270   -1.740930   -3.015922
     50          6           0       -0.583120   -0.333667   -3.465366
     51          6           0       -1.820397    0.338680   -3.015647
     52          6           0       -1.791094    1.626339   -2.605959
     53          6           0       -2.555164    2.036705   -1.412725
     54          6           0       -1.744682    3.025322   -0.675847
     55          6           0       -1.744682    3.025322    0.675847
     56          6           0       -0.583120   -0.333667    3.465366
     57          6           0       -0.526562    2.384075    2.625063
     58          6           0       -2.711034   -2.316274    0.000000
     59          6           0        2.787309    0.897638    0.000000
     60          1           0        1.685668    0.614310    0.000000
     61          6           0        2.772067    2.402176    0.000000
     62          1           0        3.782167    2.863512    0.000000
 ---------------------------------------------------------------------
 Rotational constants (GHZ):      0.0833353      0.0827259      0.0824547
 Standard basis: 6-31G(d) (6D, 7F)
 There are   468 symmetry adapted cartesian basis functions of A'  symmetry.
 There are   436 symmetry adapted cartesian basis functions of A"  symmetry.
 There are   468 symmetry adapted basis functions of A'  symmetry.
 There are   436 symmetry adapted basis functions of A"  symmetry.
   904 basis functions,  1688 primitive gaussians,   904 cartesian basis functions
   181 alpha electrons      181 beta electrons
       nuclear repulsion energy      8394.8736156754 Hartrees.
 NAtoms=   62 NActive=   62 NUniq=   34 SFac= 3.33D+00 NAtFMM=   60 NAOKFM=T Big=F
 Integral buffers will be    131072 words long.
 Raffenetti 2 integral format.
 Two-electron integral symmetry is turned on.
 Nuclear repulsion after empirical dispersion term =     8394.7542769567 Hartrees.
 One-electron integrals computed using PRISM.
 NBasis=   904 RedAO= T EigKep=  2.47D-04  NBF=   468   436
 NBsUse=   904 1.00D-06 EigRej= -1.00D+00 NBFU=   468   436
 ExpMin= 1.61D-01 ExpMax= 3.05D+03 ExpMxC= 4.57D+02 IAcc=1 IRadAn=         1 AccDes= 0.00D+00
 Harris functional with IExCor=  402 and IRadAn=       1 diagonalized for initial guess.
 HarFok:  IExCor=  402 AccDes= 0.00D+00 IRadAn=         1 IDoV= 1 UseB2=F ITyADJ=14
 ICtDFT=  3500011 ScaDFX=  1.000000  1.000000  1.000000  1.000000
 FoFCou: FMM=F IPFlag=           0 FMFlag=      100000 FMFlg1=        2000
         NFxFlg=           0 DoJE=T BraDBF=F KetDBF=T FulRan=T
         wScrn=  0.000000 ICntrl=     500 IOpCl=  0 I1Cent=   200000004 NGrid=           0
         NMat0=    1 NMatS0=      1 NMatT0=    0 NMatD0=    1 NMtDS0=    0 NMtDT0=    0
 Petite list used in FoFCou.
 Initial guess orbital symmetries:
       Occupied  (A') (A") (A') (A') (A') (A") (A') (A") (A') (A")
                 (A') (A') (A") (A') (A") (A') (A") (A') (A') (A')
                 (A") (A') (A") (A") (A") (A') (A") (A') (A") (A')
                 (A') (A") (A') (A") (A') (A") (A') (A") (A") (A')
                 (A') (A") (A") (A') (A') (A") (A') (A") (A') (A")
                 (A') (A") (A") (A') (A') (A") (A") (A') (A') (A")
                 (A') (A') (A') (A") (A') (A') (A") (A") (A') (A')
                 (A") (A') (A") (A') (A') (A") (A") (A') (A') (A')
                 (A") (A') (A") (A') (A") (A') (A") (A") (A') (A")
                 (A') (A") (A') (A') (A") (A') (A') (A') (A") (A")
                 (A') (A') (A") (A") (A') (A') (A") (A") (A') (A')
                 (A") (A") (A") (A') (A') (A") (A') (A') (A") (A')
                 (A') (A') (A") (A") (A') (A") (A') (A') (A") (A')
                 (A") (A') (A') (A") (A') (A') (A") (A') (A") (A")
                 (A") (A') (A') (A") (A') (A') (A") (A') (A") (A')
                 (A") (A') (A') (A") (A') (A") (A') (A") (A") (A')
                 (A') (A") (A') (A') (A") (A") (A') (A') (A") (A')
                 (A') (A") (A') (A") (A") (A') (A') (A") (A") (A")
                 (A')
       Virtual   (A') (A") (A') (A") (A') (A") (A') (A") (A') (A')
                 (A") (A') (A") (A') (A') (A") (A") (A") (A') (A')
                 (A") (A") (A') (A") (A') (A") (A') (A") (A") (A')
                 (A') (A") (A') (A") (A') (A') (A") (A') (A") (A')
                 (A") (A') (A") (A') (A") (A') (A') (A") (A') (A')
                 (A") (A') (A") (A") (A') (A') (A") (A") (A') (A')
                 (A") (A") (A') (A') (A") (A') (A") (A') (A") (A')
                 (A") (A') (A') (A") (A") (A") (A') (A') (A") (A')
                 (A') (A") (A') (A') (A") (A") (A') (A") (A') (A')
                 (A") (A") (A") (A') (A") (A') (A") (A') (A") (A')
                 (A") (A') (A") (A') (A') (A") (A') (A") (A') (A")
                 (A') (A") (A') (A") (A") (A") (A') (A") (A') (A')
                 (A') (A") (A') (A") (A') (A") (A') (A') (A") (A')
                 (A') (A") (A') (A") (A') (A") (A') (A') (A") (A")
                 (A') (A") (A') (A") (A') (A') (A') (A") (A') (A')
                 (A") (A') (A") (A') (A") (A') (A") (A") (A") (A')
                 (A') (A") (A') (A') (A") (A') (A") (A") (A') (A")
                 (A") (A') (A") (A') (A') (A") (A") (A') (A") (A")
                 (A') (A") (A') (A") (A') (A') (A") (A") (A') (A")
                 (A') (A") (A") (A') (A') (A") (A') (A") (A') (A")
                 (A") (A') (A") (A') (A") (A') (A') (A') (A') (A")
                 (A') (A") (A") (A') (A') (A") (A") (A') (A") (A')
                 (A") (A') (A') (A') (A') (A") (A") (A') (A') (A")
                 (A') (A") (A') (A") (A') (A") (A') (A') (A") (A')
                 (A') (A") (A') (A") (A') (A") (A') (A") (A') (A')
                 (A') (A") (A') (A') (A") (A') (A') (A") (A") (A')
                 (A") (A") (A") (A') (A") (A') (A') (A') (A") (A')
                 (A') (A") (A") (A") (A') (A") (A') (A") (A') (A")
                 (A') (A') (A") (A') (A") (A") (A") (A') (A") (A')
                 (A') (A") (A') (A') (A") (A') (A") (A') (A") (A')
                 (A') (A") (A") (A') (A') (A") (A") (A") (A') (A')
                 (A") (A") (A') (A') (A') (A") (A") (A") (A") (A')
                 (A") (A") (A") (A') (A') (A') (A") (A") (A") (A")
                 (A') (A') (A') (A") (A') (A") (A') (A") (A") (A')
                 (A") (A") (A') (A") (A') (A') (A') (A") (A') (A")
                 (A') (A") (A") (A') (A') (A') (A") (A') (A") (A")
                 (A') (A") (A") (A') (A') (A") (A") (A') (A") (A')
                 (A") (A') (A") (A') (A') (A") (A") (A") (A') (A')
                 (A") (A') (A") (A') (A') (A") (A") (A') (A') (A')
                 (A') (A") (A") (A') (A') (A") (A') (A') (A") (A")
                 (A') (A') (A') (A") (A') (A") (A') (A") (A') (A")
                 (A") (A') (A") (A') (A") (A') (A") (A") (A') (A')
                 (A') (A') (A') (A") (A') (A") (A') (A") (A') (A")
                 (A') (A') (A") (A") (A') (A') (A") (A') (A') (A")
                 (A") (A') (A") (A') (A') (A") (A') (A") (A') (A")
                 (A') (A') (A") (A') (A") (A") (A') (A") (A') (A")
                 (A') (A") (A') (A") (A") (A') (A') (A') (A") (A")
                 (A') (A') (A") (A') (A') (A") (A') (A") (A") (A')
                 (A') (A") (A') (A") (A') (A") (A") (A") (A") (A')
                 (A') (A") (A') (A") (A') (A') (A') (A") (A") (A')
                 (A') (A") (A') (A") (A") (A') (A") (A') (A") (A")
                 (A') (A') (A") (A") (A') (A") (A') (A") (A') (A")
                 (A') (A') (A") (A") (A") (A') (A") (A') (A') (A")
                 (A') (A") (A') (A") (A') (A") (A') (A") (A') (A")
                 (A") (A') (A') (A') (A") (A") (A') (A") (A') (A')
                 (A") (A') (A') (A') (A") (A") (A") (A') (A') (A")
                 (A') (A") (A") (A') (A') (A") (A') (A") (A") (A')
                 (A') (A") (A") (A') (A") (A') (A") (A') (A") (A")
                 (A') (A') (A") (A') (A') (A") (A') (A") (A") (A')
                 (A") (A') (A") (A') (A") (A') (A") (A') (A") (A')
                 (A") (A') (A") (A") (A') (A") (A') (A') (A") (A')
                 (A") (A') (A") (A") (A') (A') (A") (A") (A') (A")
                 (A') (A") (A") (A") (A") (A") (A') (A") (A') (A')
                 (A") (A') (A") (A') (A") (A") (A') (A") (A') (A')
                 (A") (A") (A') (A") (A') (A") (A") (A") (A') (A")
                 (A') (A") (A') (A") (A') (A") (A") (A") (A') (A')
                 (A") (A") (A") (A') (A") (A') (A') (A") (A') (A")
                 (A') (A') (A") (A') (A") (A') (A') (A") (A') (A")
                 (A') (A") (A') (A") (A') (A') (A") (A') (A") (A')
                 (A') (A") (A") (A") (A') (A') (A') (A') (A") (A")
                 (A') (A") (A") (A') (A") (A') (A') (A') (A") (A')
                 (A") (A') (A") (A") (A') (A") (A') (A") (A') (A")
                 (A') (A") (A")
 The electronic state of the initial guess is 1-A'.
 Requested convergence on RMS density matrix=1.00D-08 within1000 cycles.
 Requested convergence on MAX density matrix=1.00D-06.
 Requested convergence on             energy=1.00D-06.
 Level shift goal  0.100 maximum shift  0.100.
 No special actions if energy rises.
 Dynamic level shift is on during FON iterations.
 SCF Done:  E(RB3LYP) =  -2287.37128421     A.U. after   14 cycles
            NFock= 14  Conv=0.66D-08     -V/T= 2.0096

 **********************************************************************

            Population analysis using the SCF density.

 **********************************************************************

 Orbital symmetries:
       Occupied  (A') (A") (A') (A") (A') (A") (A') (A") (A") (A')
                 (A") (A') (A') (A") (A") (A') (A') (A") (A') (A")
                 (A') (A") (A") (A') (A") (A') (A') (A") (A') (A")
                 (A') (A') (A") (A') (A') (A") (A") (A') (A') (A")
                 (A') (A") (A') (A") (A') (A") (A") (A') (A") (A')
                 (A") (A') (A") (A') (A') (A") (A') (A') (A") (A')
                 (A') (A') (A') (A") (A') (A') (A") (A') (A") (A')
                 (A") (A') (A") (A') (A') (A") (A") (A') (A') (A')
                 (A") (A') (A") (A') (A") (A') (A") (A") (A") (A')
                 (A') (A") (A') (A') (A") (A') (A') (A') (A") (A")
                 (A') (A') (A") (A") (A') (A') (A") (A') (A") (A')
                 (A") (A") (A") (A') (A') (A") (A') (A') (A') (A")
                 (A') (A') (A') (A") (A') (A") (A') (A") (A') (A")
                 (A') (A") (A') (A') (A") (A') (A") (A') (A') (A")
                 (A') (A") (A") (A') (A") (A") (A') (A") (A') (A')
                 (A') (A") (A') (A') (A") (A") (A') (A") (A') (A')
                 (A") (A") (A') (A") (A') (A") (A') (A') (A") (A')
                 (A') (A") (A') (A") (A") (A') (A') (A") (A") (A")
                 (A')
       Virtual   (A') (A") (A') (A') (A") (A") (A') (A") (A") (A')
                 (A') (A') (A") (A') (A') (A") (A") (A") (A') (A")
                 (A') (A") (A') (A") (A") (A') (A') (A") (A") (A')
                 (A') (A') (A") (A') (A") (A') (A') (A') (A") (A')
                 (A") (A") (A") (A') (A') (A") (A') (A") (A') (A')
                 (A") (A') (A") (A') (A') (A") (A") (A') (A") (A")
                 (A') (A') (A") (A') (A") (A') (A") (A') (A') (A")
                 (A') (A") (A') (A") (A') (A") (A") (A') (A") (A')
                 (A') (A") (A') (A') (A') (A") (A") (A') (A') (A")
                 (A') (A") (A") (A') (A") (A') (A") (A') (A") (A')
                 (A") (A') (A") (A') (A') (A") (A') (A") (A') (A')
                 (A") (A') (A") (A") (A') (A") (A') (A") (A') (A')
                 (A") (A") (A') (A') (A') (A") (A') (A") (A') (A")
                 (A") (A") (A') (A") (A') (A") (A') (A') (A") (A')
                 (A') (A') (A") (A') (A") (A') (A") (A') (A") (A')
                 (A') (A") (A') (A') (A") (A") (A') (A") (A") (A')
                 (A") (A') (A") (A') (A') (A") (A') (A") (A") (A')
                 (A") (A') (A") (A") (A') (A") (A') (A") (A') (A")
                 (A") (A') (A') (A") (A') (A") (A") (A") (A") (A')
                 (A') (A') (A") (A') (A") (A") (A') (A') (A") (A")
                 (A') (A") (A') (A') (A") (A') (A") (A') (A') (A")
                 (A') (A") (A") (A') (A") (A') (A') (A") (A") (A')
                 (A") (A') (A') (A') (A") (A') (A") (A') (A") (A')
                 (A") (A') (A") (A") (A') (A') (A") (A') (A') (A')
                 (A") (A') (A") (A') (A') (A") (A') (A") (A') (A')
                 (A') (A") (A') (A") (A') (A') (A") (A") (A') (A')
                 (A") (A") (A") (A') (A') (A") (A") (A') (A') (A")
                 (A") (A') (A") (A") (A') (A') (A') (A") (A') (A")
[...]
 02835,-0.00007331,0.00011700,-0.00003193,0.00025096,0.00010356,0.00015
 493,-0.00002754,-0.00004248,-0.00000607,0.00001071,-0.00004248,0.00000
 607,0.00001071,-0.00004778,-0.00006785,-0.00002650,-0.00000734,0.00006
 486,-0.00002557,0.00005789,-0.00002889,-0.00002179,-0.00018507,0.00007
 499,-0.00029833,-0.00005073,0.00018834,-0.00015297,-0.00008470,0.00017
 669,0.00004533,-0.00019802,-0.00004918,-0.00011016,-0.00012582,0.00002
 835,-0.00007331,0.00011700,0.00003193,0.00025096,0.00010356,-0.0001549
 3,-0.00002754,0.00002581,-0.00023451,-0.00029335,0.00002581,0.00023451
 ,-0.00029335,-0.00019802,0.00004918,-0.00011016,0.00006089,0.00009429,
 -0.00025229,-0.00007192,0.,0.00011866,-0.04235088,0.,-0.04145800,0.086
 47549,0.00194677,-0.00016424,0.00035812,-0.00226966,-0.00246718,0.0030
 0092,0.00143430,-0.00921815,0.00458368,-0.00560067,-0.01336317,0.02143
 578,-0.00194677,-0.00016424,-0.00035812,-0.00056989,0.00022199,0.00093
 161,0.00056989,0.00022199,-0.00093161,0.00020386,0.00032645,0.00034733
 ,-0.00075029,-0.00007092,-0.00145766,0.00072985,0.00261230,-0.00037171
 ,-0.00042678,-0.00092402,-0.00032244,0.00126876,0.00052902,-0.00061044
 ,-0.00212212,-0.00117980,0.00213798,0.00212212,-0.00117980,-0.00213798
 ,0.00560067,-0.01336317,-0.02143578,-0.00143430,-0.00921815,-0.0045836
 8,0.00226966,-0.00246718,-0.00300092,-0.00020386,0.00032645,-0.0003473
 3,0.00033177,-0.00026114,-0.00055348,0.00075029,-0.00007092,0.00145766
 ,-0.00009179,0.00003928,0.00014194,-0.00072985,0.00261230,0.00037171,0
 .00042678,-0.00092402,0.00032244,-0.00126876,0.00052902,0.00061044,0.0
 0026754,0.00007978,0.00025961,-0.00026754,0.00007978,-0.00025961,0.000
 09179,0.00003928,-0.00014194,-0.00007916,-0.00006784,-0.00012554,-0.00
 011153,0.00010023,0.00015125,-0.00003798,0.00031714,-0.00025270,0.0000
 5870,-0.00026548,0.00008851,0.,0.00036195,0.,0.00007916,-0.00006784,0.
 00012554,0.00001680,-0.00005402,0.00004198,-0.00001680,-0.00005402,-0.
 00004198,-0.00017396,0.00010052,-0.00006867,0.00035139,-0.00000821,0.0
 0015412,-0.00007352,-0.00036850,-0.00028053,0.00010791,-0.00004949,0.0
 0017955,-0.00008613,-0.00005383,-0.00031041,-0.00003649,-0.00007452,0.
 00002411,0.00000939,-0.00000266,-0.00007509,-0.00000939,-0.00000266,0.
 00007509,-0.00005870,-0.00026548,-0.00008851,0.00003798,0.00031714,0.0
 0025270,0.00011153,0.00010023,-0.00015125,0.00017396,0.00010052,0.0000
 6867,-0.00035139,-0.00000821,-0.00015412,0.00007352,-0.00036850,0.0002
 8053,0.00038725,-0.00021427,0.00026677,-0.00010791,-0.00004949,-0.0001
 7955,0.00008613,-0.00005383,0.00031041,0.00003649,-0.00007452,-0.00002
 411,0.00000269,0.00008795,-0.00004499,-0.00000269,0.00008795,0.0000449
 9,-0.00038725,-0.00021427,-0.00026677,-0.00033177,-0.00026114,0.000553
 48,0.,-0.00006414,0.,0.,-0.02498900,0.,0.,0.07085225,0.00053077,-0.000
 35102,0.00009353,-0.00163216,-0.00227740,0.00262770,0.00364912,-0.0029
 0726,0.00078872,0.00582724,0.01088757,-0.01263385,0.00053077,0.0003510
 2,0.00009353,0.00132387,-0.00036002,0.00001147,0.00132387,0.00036002,0
 .00001147,-0.00003715,0.00046954,0.00015943,0.00003510,0.00083497,-0.0
 0070475,-0.00004738,-0.00031781,0.00043722,0.00160012,0.00009133,-0.00
 085656,0.00136197,0.00210440,0.00160822,-0.00299992,0.00066552,0.00064
 797,-0.00299992,-0.00066552,0.00064797,0.00582724,-0.01088757,-0.01263
 385,0.00364912,0.00290726,0.00078872,-0.00163216,0.00227740,0.00262770
 ,-0.00003715,-0.00046954,0.00015943,-0.00028994,0.00043621,0.00065973,
 0.00003510,-0.00083497,-0.00070475,-0.00055515,-0.00016628,-0.00014306
 ,-0.00004738,0.00031781,0.00043723,0.00160012,-0.00009133,-0.00085656,
 0.00136197,-0.00210440,0.00160822,-0.00012576,-0.00012286,-0.00013145,
 -0.00012576,0.00012286,-0.00013145,-0.00055515,0.00016628,-0.00014306,
 0.00010295,-0.00009893,0.00008919,-0.00008389,0.00007865,-0.00025388,-
 0.00017766,0.00027672,0.00005877,0.00005834,-0.00016413,-0.00009535,-0
 .00027164,0.,0.00009124,0.00010295,0.00009893,0.00008918,-0.00009841,-
 0.00020138,-0.00009918,-0.00009841,0.00020138,-0.00009918,0.00013678,0
 .00005230,0.00023662,-0.00026748,-0.00013432,-0.00041929,0.00010006,0.
 00001745,0.00019345,0.00027565,-0.00010927,0.00012253,-0.00022802,-0.0
 0015551,-0.00050052,-0.00012612,-0.00017672,0.00000800,-0.00002108,0.0
 0008632,0.00014691,-0.00002108,-0.00008632,0.00014691,0.00005834,0.000
 16413,-0.00009535,-0.00017766,-0.00027672,0.00005877,-0.00008389,-0.00
 007865,-0.00025388,0.00013678,-0.00005230,0.00023662,-0.00026748,0.000
 13432,-0.00041929,0.00010006,-0.00001745,0.00019345,0.00007910,0.00012
 337,-0.00002855,0.00027565,0.00010927,0.00012253,-0.00022802,0.0001555
 1,-0.00050052,-0.00012612,0.00017672,0.00000800,-0.00006808,0.00034705
 ,0.00030987,-0.00006808,-0.00034705,0.00030987,0.00007910,-0.00012338,
 -0.00002855,-0.00028994,-0.00043621,0.00065973,0.00012832,0.,-0.000154
 75,-0.05200856,0.,-0.24687761,0.04367417,0.,0.26782011,-0.07428654,0.0
 0462038,0.01761349,0.00470386,-0.00538655,-0.01185797,0.00110009,0.003
 76852,-0.00095481,-0.00875277,-0.00088883,-0.00105065,-0.07428654,-0.0
 0462039,0.01761349,-0.00103315,-0.01044234,0.01512570,-0.00103315,0.01
 044234,0.01512570,0.00271105,-0.00290182,0.00196241,-0.00034514,-0.006
 18235,0.00028237,-0.00145453,-0.00049877,-0.00062769,0.00102897,-0.000
 46407,0.00006796,0.00044160,0.00069618,0.00104907,-0.00149189,-0.00006
 419,0.00038696,-0.00149189,0.00006419,0.00038696,-0.00875277,0.0008888
 3,-0.00105065,0.00110009,-0.00376852,-0.00095481,0.00470386,0.00538655
 ,-0.01185797,0.00271105,0.00290182,0.00196241,-0.00111448,0.00056778,0
 .00043324,-0.00034514,0.00618235,0.00028237,0.00057220,0.00030565,-0.0
 0027834,-0.00145453,0.00049877,-0.00062769,0.00102897,0.00046407,0.000
 06796,0.00044160,-0.00069618,0.00104907,-0.00001093,-0.00020697,-0.000
 19724,-0.00001094,0.00020697,-0.00019723,0.00057220,-0.00030565,-0.000
 27834,0.00006542,-0.00012361,0.00004489,-0.00002471,0.00018815,-0.0003
 3502,-0.00034754,0.00021229,-0.00016528,-0.00009811,-0.00020803,0.0000
 9575,-0.00010804,0.,-0.00009296,0.00006542,0.00012361,0.00004489,-0.00
 004604,-0.00011823,-0.00007592,-0.00004604,0.00011823,-0.00007592,0.00
 008215,0.00001872,0.00011598,-0.00015257,-0.00010951,-0.00044078,0.000
 13804,0.00013538,0.00013240,0.00001566,-0.00025537,0.00049681,-0.00014
 846,0.00045723,0.00026232,0.00002696,-0.00034380,0.00014853,0.00006081
 ,0.00027454,0.00017357,0.00006081,-0.00027454,0.00017357,-0.00009811,0
 .00020803,0.00009575,-0.00034754,-0.00021229,-0.00016528,-0.00002471,-
 0.00018815,-0.00033502,0.00008215,-0.00001872,0.00011598,-0.00015257,0
 .00010951,-0.00044078,0.00013804,-0.00013538,0.00013240,-0.00018462,-0
 .00020083,-0.00016816,0.00001566,0.00025537,0.00049681,-0.00014846,-0.
 00045723,0.00026232,0.00002696,0.00034380,0.00014853,0.00093794,-0.000
 55967,0.00065459,0.00093794,0.00055967,0.00065459,-0.00018462,0.000200
 83,-0.00016816,-0.00111448,-0.00056778,0.00043324,0.00009207,0.,-0.000
 04599,-0.20680480,0.,0.00501172,-0.02520303,0.,-0.00752448,0.50620486,
 0.00259289,-0.11635050,-0.04340721,0.00032706,-0.01699114,-0.01899645,
 0.00044963,0.00023765,0.00203651,-0.02194334,0.00564378,-0.00274119,-0
 .00259289,-0.11635050,0.04340721,-0.00361652,0.00383528,0.00766448,0.0
 0361652,0.00383528,-0.00766448,-0.00062783,-0.00058507,0.00235009,-0.0
 0218188,0.00010115,0.00240875,0.00029338,-0.00024566,0.00009117,-0.000
 18205,-0.00025511,-0.00007782,-0.00109138,0.00117897,0.00018932,-0.002
 67171,-0.00490412,-0.00040430,0.00267171,-0.00490412,0.00040430,0.0219
 4334,0.00564378,0.00274119,-0.00044963,0.00023765,-0.00203651,-0.00032
 706,-0.01699114,0.01899645,0.00062783,-0.00058507,-0.00235009,0.000327
 89,-0.00017846,0.00014580,0.00218188,0.00010115,-0.00240875,0.00021315
 ,-0.00029855,0.00105428,-0.00029338,-0.00024566,-0.00009117,0.00018205
 ,-0.00025511,0.00007782,0.00109138,0.00117897,-0.00018932,0.00004657,-
 0.00036935,0.00007046,-0.00004657,-0.00036935,-0.00007046,-0.00021315,
 -0.00029855,-0.00105428,0.00015746,-0.00011590,-0.00015347,-0.00006686
 ,0.00005986,0.00000889,0.00006869,-0.00030835,0.00019816,0.00014004,0.
 00031899,-0.00008241,0.,-0.00019134,0.,-0.00015746,-0.00011590,0.00015
 347,-0.00003247,-0.00006656,-0.00018241,0.00003247,-0.00006656,0.00018
 241,-0.00012133,0.00020784,-0.00030062,0.00029084,-0.00006364,0.000104
 06,-0.00004320,-0.00023079,-0.00004304,-0.00008514,0.00037129,-0.00020
 941,0.00026142,-0.00003391,-0.00027400,0.00020257,-0.00015288,0.000342
 84,-0.00007990,0.00003847,-0.00015217,0.00007990,0.00003847,0.00015217
 ,-0.00014004,0.00031899,0.00008241,-0.00006869,-0.00030835,-0.00019816
 ,0.00006686,0.00005986,-0.00000889,0.00012133,0.00020784,0.00030062,-0
 .00029084,-0.00006364,-0.00010406,0.00004320,-0.00023079,0.00004304,0.
 00050977,-0.00001742,-0.00054002,0.00008514,0.00037129,0.00020941,-0.0
 0026142,-0.00003391,0.00027399,-0.00020257,-0.00015288,-0.00034284,0.0
 0024741,0.00037860,-0.00007152,-0.00024741,0.00037860,0.00007152,-0.00
 050977,-0.00001742,0.00054002,-0.00032789,-0.00017846,-0.00014580,0.,-
 0.00005621,0.,0.,-0.07737918,0.,0.,0.00176682,0.,0.,0.38108971,0.01073
 089,-0.02512451,-0.10553626,-0.00611139,-0.00404041,0.00129043,-0.0019
 6651,-0.00090117,-0.00095399,0.01152348,0.00081467,-0.00287804,0.01073
 088,0.02512451,-0.10553626,0.00623923,0.01472113,-0.02452948,0.0062392
 3,-0.01472113,-0.02452948,0.00323542,-0.00041055,-0.00333724,0.0044666
 8,-0.00230149,0.00462796,0.00118492,0.00025198,0.00068913,-0.00106681,
 -0.00003707,-0.00046772,0.00121322,-0.00044131,-0.00011923,-0.00022193
 ,0.00210243,0.00202935,-0.00022193,-0.00210243,0.00202935,0.01152348,-
 0.00081467,-0.00287804,-0.00196651,0.00090117,-0.00095399,-0.00611139,
 0.00404041,0.00129043,0.00323542,0.00041055,-0.00333724,0.00192936,-0.
 00208974,-0.00156101,0.00446668,0.00230148,0.00462796,-0.00015716,-0.0
 0008544,0.00101056,0.00118492,-0.00025198,0.00068913,-0.00106681,0.000
 03707,-0.00046772,0.00121322,0.00044131,-0.00011923,-0.00012197,-0.000
 38759,0.00011230,-0.00012197,0.00038759,0.00011230,-0.00015716,0.00008
 544,0.00101056,-0.00003234,0.00023448,-0.00015936,0.00001651,-0.000207
 11,0.00040241,0.00017830,-0.00032575,0.00005616,-0.00012683,0.00036288
 ,0.00007177,0.00034639,0.,-0.00026348,-0.00003234,-0.00023448,-0.00015
 936,0.00011108,0.00020010,0.00019050,0.00011108,-0.00020010,0.00019050
 ,-0.00006316,0.00005487,-0.00012287,0.00028904,0.00009129,0.00090348,0
 .00002787,0.00000009,-0.00049964,0.00025921,0.00034635,-0.00046258,-0.
 00033205,0.00030622,0.00014174,-0.00042318,0.00014442,-0.00047626,0.00
 017466,-0.00026442,0.00020251,0.00017466,0.00026442,0.00020251,-0.0001
 2683,-0.00036288,0.00007177,0.00017830,0.00032575,0.00005616,0.0000165
 1,0.00020711,0.00040241,-0.00006316,-0.00005487,-0.00012287,0.00028904
 ,-0.00009129,0.00090348,0.00002787,-0.00000009,-0.00049964,0.00011782,
 -0.00045398,0.00064285,0.00025921,-0.00034635,-0.00046258,-0.00033205,
 -0.00030622,0.00014174,-0.00042318,-0.00014442,-0.00047626,-0.00014350
 ,0.00026710,-0.00016579,-0.00014350,-0.00026710,-0.00016579,0.00011782
 ,0.00045398,0.00064285,0.00192936,0.00208975,-0.00156101,-0.00047100,0
 .,0.00033156,0.01048423,0.,-0.06209676,-0.03285054,0.,-0.00693456,0.07
 548704,0.,0.56265765,0.00533692,-0.00250596,0.00595628,0.00001793,-0.0
 0000713,-0.00061922,-0.00054031,-0.00102364,0.00076748,0.00143029,0.00
 026823,-0.00068034,0.00533692,0.00250596,0.00595628,-0.00079625,-0.000
 16232,0.00116467,-0.00079625,0.00016232,0.00116467,-0.00048467,-0.0002
 6446,0.00007992,-0.00017372,0.00031284,0.00028119,0.00039266,0.0003474
 0,0.00021664,-0.00028135,-0.00001915,-0.00018561,0.00006774,0.00008045
 ,-0.00012443,-0.00036651,0.00032754,0.00044916,-0.00036651,-0.00032754
 ,0.00044916,0.00143029,-0.00026823,-0.00068034,-0.00054031,0.00102364,
 0.00076748,0.00001793,0.00000713,-0.00061922,-0.00048468,0.00026446,0.
 00007992,0.00025131,-0.00038952,-0.00003886,-0.00017372,-0.00031284,0.
 00028119,0.00000549,-0.00003564,-0.00011496,0.00039266,-0.00034740,0.0
 0021664,-0.00028135,0.00001915,-0.00018561,0.00006774,-0.00008045,-0.0
 0012443,0.00007368,0.00009104,0.00012908,0.00007368,-0.00009104,0.0001
 2908,0.00000549,0.00003564,-0.00011496,-0.00001030,0.00003352,-0.00003
 772,0.00003515,-0.00002636,0.00013978,0.00010398,-0.00009244,0.0000033
 8,0.00003920,0.00009163,-0.00000637,0.00007992,0.,-0.00005527,-0.00001
 030,-0.00003352,-0.00003772,0.00001548,0.00005827,0.00007703,0.0000154
 8,-0.00005827,0.00007703,-0.00001745,-0.00000500,-0.00008546,0.0000870
 4,0.00000871,0.00021425,0.00001801,-0.00010019,-0.00010912,0.00002121,
 0.00014846,-0.00013228,0.00006463,-0.00002599,-0.00007355,0.00010013,0
 .00000863,0.00006001,-0.00005938,0.00004765,-0.00006018,-0.00005938,-0
 .00004765,-0.00006018,0.00003920,-0.00009163,-0.00000637,0.00010398,0.
 00009244,0.00000338,0.00003515,0.00002636,0.00013978,-0.00001745,0.000
 00500,-0.00008546,0.00008704,-0.00000871,0.00021425,0.00001801,0.00010
 019,-0.00010912,-0.00011392,0.00001803,0.00015809,0.00002121,-0.000148
 46,-0.00013228,0.00006463,0.00002599,-0.00007355,0.00010013,-0.0000086
 3,0.00006001,-0.00010736,-0.00012182,-0.00013656,-0.00010736,0.0001218
 2,-0.00013656,-0.00011392,-0.00001803,0.00015809,0.00025131,0.00038952
 ,-0.00003886,-0.00000995,0.,0.00005368,-0.01302346,0.,-0.02773234,-0.0
 0677082,0.,-0.00064355,-0.11896762,0.,-0.11485788,0.12847266,-0.013603
 04,0.00207283,-0.01909166,0.00114675,-0.00070986,-0.00074023,0.0001364
 8,0.00071088,-0.00058797,0.00016233,0.00022898,0.00013169,0.01360304,0
 .00207283,0.01909166,-0.00044590,-0.00169996,0.00052140,0.00044590,-0.
 00169996,-0.00052140,0.00038509,-0.00027198,-0.00056303,0.00043604,-0.
 00076156,0.00039346,-0.00018328,-0.00021275,-0.00009113,-0.00001375,0.
 00006839,0.00007570,-0.00005712,-0.00007462,0.00000975,0.00002648,0.00
 004103,0.00002211,-0.00002648,0.00004103,-0.00002211,-0.00016233,0.000
 22898,-0.00013169,-0.00013648,0.00071088,0.00058797,-0.00114675,-0.000
 70986,0.00074023,-0.00038509,-0.00027198,0.00056303,-0.00025205,-0.000
 16711,0.00036860,-0.00043604,-0.00076156,-0.00039346,-0.00003495,0.000
 04543,-0.00001734,0.00018328,-0.00021275,0.00009114,0.00001375,0.00006
 839,-0.00007570,0.00005712,-0.00007462,-0.00000975,-0.00006448,0.00002
 259,-0.00002050,0.00006448,0.00002259,0.00002050,0.00003495,0.00004543
 ,0.00001734,-0.00003377,0.00000426,-0.00003637,-0.00000086,0.00007348,
 -0.00004221,0.00003061,0.00003191,0.00006212,-0.00009037,0.00005928,-0
 .00009952,0.,-0.00014772,0.,0.00003377,0.00000426,0.00003637,0.0000044
 5,0.00000932,-0.00000422,-0.00000445,0.00000932,0.00000422,0.00000341,
 -0.00000544,-0.00003888,-0.00004521,-0.00001825,-0.00006204,-0.0000029
 0,0.00004907,0.00005243,-0.00005187,-0.00014780,-0.00005006,-0.0000057
 4,0.00011461,0.00033234,-0.00008419,0.00008630,-0.00015800,0.00001418,
 -0.00002305,0.00006056,-0.00001418,-0.00002305,-0.00006056,0.00009037,
 0.00005928,0.00009952,-0.00003061,0.00003191,-0.00006212,0.00000086,0.
 00007348,0.00004221,-0.00000341,-0.00000544,0.00003888,0.00004521,-0.0
 0001825,0.00006204,0.00000290,0.00004907,-0.00005243,-0.00004657,0.000
 08055,0.00010230,0.00005187,-0.00014780,0.00005006,0.00000574,0.000114
 61,-0.00033234,0.00008419,0.00008630,0.00015800,-0.00007916,-0.0000839
 1,-0.00004135,0.00007916,-0.00008391,0.00004135,0.00004657,0.00008055,
 -0.00010230,0.00025205,-0.00016711,-0.00036860,0.,-0.00000032,0.,0.,-0
 .00009718,0.,0.,0.00085771,0.,0.,-0.04763872,0.,0.,0.04798095,-0.00660
 718,-0.00169159,-0.01139141,0.00111413,0.00046120,-0.00054515,-0.00042
 697,0.00002894,-0.00008558,-0.00097042,-0.00035824,0.00018446,-0.00660
 718,0.00169159,-0.01139141,-0.00035027,0.00063279,-0.00083350,-0.00035
 027,-0.00063279,-0.00083350,0.00041077,-0.00021881,-0.00055684,0.00007
 477,-0.00055397,-0.00006381,0.00013519,0.00013063,0.00014745,-0.000180
 16,0.00013416,0.00011351,-0.00005098,-0.00025483,-0.00009858,0.0002628
 1,-0.00007493,-0.00004370,0.00026281,0.00007493,-0.00004370,-0.0009704
 2,0.00035824,0.00018446,-0.00042697,-0.00002894,-0.00008558,0.00111413
 ,-0.00046120,-0.00054515,0.00041077,0.00021881,-0.00055684,0.00001405,
 0.00002707,-0.00002102,0.00007477,0.00055397,-0.00006381,0.00008418,-0
 .00003513,-0.00005727,0.00013519,-0.00013063,0.00014745,-0.00018016,-0
 .00013416,0.00011351,-0.00005098,0.00025483,-0.00009858,-0.00004271,-0
 .00007458,-0.00007398,-0.00004271,0.00007458,-0.00007398,0.00008418,0.
 00003513,-0.00005727,-0.00001243,0.00002083,0.00000774,-0.00002061,-0.
 00002854,0.00002494,0.00001386,-0.00001398,0.00002969,-0.00000495,0.00
 000370,-0.00001533,0.00001306,0.,-0.00000441,-0.00001243,-0.00002083,0
 .00000774,-0.00000151,-0.00001107,-0.00004265,-0.00000151,0.00001107,-
 0.00004265,-0.00001142,0.00002895,0.00002833,0.00000423,-0.00001167,-0
 .00000713,-0.00006715,0.00006045,-0.00003952,-0.00006389,-0.00006199,0
 .00002333,0.00000303,0.00005437,0.00011877,-0.00004242,0.00000158,-0.0
 0005795,-0.00000653,-0.00005571,0.00003726,-0.00000653,0.00005571,0.00
 003726,-0.00000495,-0.00000370,-0.00001533,0.00001386,0.00001398,0.000
 02969,-0.00002061,0.00002854,0.00002494,-0.00001142,-0.00002895,0.0000
 2833,0.00000423,0.00001167,-0.00000713,-0.00006715,-0.00006045,-0.0000
 3952,0.00006420,-0.00001271,-0.00008627,-0.00006389,0.00006199,0.00002
 333,0.00000303,-0.00005437,0.00011877,-0.00004242,-0.00000158,-0.00005
 795,0.00008898,0.00013329,0.00005740,0.00008898,-0.00013329,0.00005740
 ,0.00006420,0.00001271,-0.00008627,0.00001405,-0.00002707,-0.00002102,
 -0.00003306,0.,0.00001757,0.00174211,0.,0.00738776,0.00142961,0.,0.001
 38980,-0.11862370,0.,-0.23589784,0.12865077,0.,0.25360073\\-0.00001591
 ,-0.00003012,0.00000124,0.00003173,0.00004427,0.00000259,-0.00000866,-
 0.00006811,-0.00002305,-0.00000472,0.00005246,0.00000511,-0.00001591,0
 .00003012,0.00000124,0.00000750,-0.00001690,-0.00001619,0.00000750,0.0
 0001690,-0.00001619,0.00000130,0.00001552,-0.00001423,-0.00002221,-0.0
 0001650,-0.00001857,0.00002180,0.00002413,0.00001513,-0.00002051,0.000
 00891,0.00002352,0.00000039,-0.00002740,-0.00001498,0.00001980,-0.0000
 1587,0.00001801,0.00001980,0.00001587,0.00001801,-0.00000472,-0.000052
 46,0.00000511,-0.00000866,0.00006811,-0.00002305,0.00003173,-0.0000442
 7,0.00000259,0.00000130,-0.00001552,-0.00001423,-0.00000814,0.00000734
 ,-0.00000626,-0.00002221,0.00001650,-0.00001857,0.00003082,0.00000335,
 0.00002059,0.00002180,-0.00002413,0.00001513,-0.00002051,-0.00000891,0
 .00002352,0.00000039,0.00002740,-0.00001498,0.00000235,0.00001131,0.00
 000432,0.00000235,-0.00001131,0.00000432,0.00003082,-0.00000335,0.0000
 2059,-0.00001195,0.00001590,0.00000300,0.00000728,-0.00001161,0.000003
 21,-0.00000624,-0.00000294,-0.00000225,-0.00000719,0.00000681,0.000002
 46,0.00001814,0.,-0.00000482,-0.00001195,-0.00001590,0.00000300,-0.000
 00335,0.00000180,-0.00000155,-0.00000335,-0.00000180,-0.00000155,0.000
 00842,-0.00000334,0.00001267,0.00000138,0.00000751,-0.00001144,-0.0000
 1400,-0.00000037,0.00001129,-0.00003347,-0.00001408,0.00001103,0.00002
 821,0.00000744,0.00000576,0.00000169,0.00000549,0.00000206,-0.00001342
 ,0.00000471,-0.00000786,-0.00001342,-0.00000471,-0.00000786,-0.0000071
 9,-0.00000681,0.00000246,-0.00000624,0.00000294,-0.00000225,0.00000728
 ,0.00001161,0.00000321,0.00000842,0.00000334,0.00001267,0.00000138,-0.
 00000751,-0.00001144,-0.00001400,0.00000037,0.00001129,0.00000195,-0.0
 0001403,-0.00002939,-0.00003347,0.00001408,0.00001103,0.00002821,-0.00
 000744,0.00000576,0.00000169,-0.00000549,0.00000206,-0.00000123,0.0000
 4538,0.00000194,-0.00000123,-0.00004538,0.00000194,0.00000195,0.000014
 03,-0.00002939,-0.00000814,-0.00000734,-0.00000626,-0.00001847,0.,0.00
 001212,-0.00000201,0.,-0.00001790,0.00002063,0.,-0.00000146,0.00000612
 ,0.,0.00001943,-0.00001167,0.,-0.00000367\\\@


 NOTHING MAKES A PERSON MORE PRODUCTIVE THAN THE LAST MINUTE.
 Job cpu time:       2 days  5 hours 38 minutes 41.5 seconds.
 File lengths (MBytes):  RWF=   3314 Int=      0 D2E=      0 Chk=     68 Scr=      1
 Normal termination of Gaussian 09 at Sat Mar 21 16:04:12 2020.
